# vtk DataFile Version 3.0
Para0
ASCII
DATASET RECTILINEAR_GRID
DIMENSIONS 161 81 1
X_COORDINATES 161 int
0 1 2 3 4 5 6 7 8 9 10 11 12 13 14 15 16 17 18 19 20 21 22 23 24 25 26 27 28 29 30 31 32 33 34 35 36 37 38 39 40 41 42 43 44 45 46 47 48 49 50 51 52 53 54 55 56 57 58 59 60 61 62 63 64 65 66 67 68 69 70 71 72 73 74 75 76 77 78 79 80 81 82 83 84 85 86 87 88 89 90 91 92 93 94 95 96 97 98 99 100 101 102 103 104 105 106 107 108 109 110 111 112 113 114 115 116 117 118 119 120 121 122 123 124 125 126 127 128 129 130 131 132 133 134 135 136 137 138 139 140 141 142 143 144 145 146 147 148 149 150 151 152 153 154 155 156 157 158 159 160 
Y_COORDINATES 81 int
0 1 2 3 4 5 6 7 8 9 10 11 12 13 14 15 16 17 18 19 20 21 22 23 24 25 26 27 28 29 30 31 32 33 34 35 36 37 38 39 40 41 42 43 44 45 46 47 48 49 50 51 52 53 54 55 56 57 58 59 60 61 62 63 64 65 66 67 68 69 70 71 72 73 74 75 76 77 78 79 80 
Z_COORDINATES 1 int
0

POINT_DATA 13041
SCALARS distance float 1
LOOKUP_TABLE default
0.000000
0.000000
0.000000
0.000000
0.000000
0.000000
0.000000
0.000000
0.000000
0.000000
0.000000
0.000000
0.000000
0.000000
0.000000
0.000000
0.000000
0.000000
0.000000
0.000000
0.000000
0.000000
0.000000
0.000000
0.000000
0.000000
0.000000
0.000000
0.000000
0.000000
0.000000
0.000000
0.000000
0.000000
0.000000
0.000000
0.000000
0.000000
0.000000
0.000000
0.000000
0.000000
0.000000
0.000000
0.000000
0.000000
0.000000
0.000000
0.000000
0.000000
0.000000
0.000000
0.000000
0.000000
0.000000
0.000000
0.000000
0.000000
0.000000
0.000000
0.000000
0.000000
0.000000
0.000000
0.000000
0.000000
0.000000
0.000000
0.000000
0.000000
0.000000
0.000000
-0.046885
-0.233076
-0.481940
-0.692884
-0.826643
-0.839519
-0.892326
-0.972209
-1.008960
-0.998975
-0.980892
-0.995017
-1.017237
-1.021701
-1.016800
-1.007279
-0.980623
-0.971203
-0.963821
-0.942031
-0.917152
-0.886903
-0.905905
-0.974871
-0.997274
-0.995109
-0.989402
-0.983947
-0.983724
-0.983108
-0.968075
-1.036965
-1.231521
-1.536475
-1.808306
-1.930205
-2.037425
-2.244630
-2.549289
-2.853952
-3.039286
-3.134032
-3.269424
-3.426394
-3.539995
-3.596492
-3.622660
-3.628427
-3.623630
-3.617605
-3.617897
-3.628807
-3.650970
-3.677744
-3.714298
-3.768008
-3.825271
-3.873305
-3.902042
-3.906020
-3.880162
-3.823254
-3.740590
-3.638514
-3.531119
-3.438165
-3.377570
-3.408304
-3.534453
-3.745117
-3.947241
-4.223035
-4.369959
-4.338938
-4.275393
-4.234923
-4.217597
-4.225807
-4.253742
-4.293129
-4.341911
-4.395013
-4.442582
-4.486621
-4.631328
-4.916129
-5.344133
-5.898296
-6.554282
0.000000
0.707107
0.996724
0.987283
0.999920
0.999981
1.000000
1.000000
1.000000
1.000000
1.000000
1.000000
1.000000
1.000000
1.000000
1.000000
1.000000
1.000000
1.000000
1.000000
1.000000
1.000000
1.000000
1.000000
1.000000
1.000000
1.000000
1.000000
1.000000
1.000000
1.000000
1.000000
1.000000
1.000000
1.000000
1.000000
1.000000
1.000000
1.000000
1.000000
1.000000
1.000000
1.000000
1.000000
1.000000
1.000000
1.000000
1.000000
1.000000
1.000000
1.000000
1.000000
1.000000
1.000000
1.000000
1.000000
1.000000
1.000000
1.000000
1.000000
1.000000
1.000000
1.000000
1.000000
1.000000
1.000000
1.000000
1.000000
1.000000
1.000000
0.999728
0.999732
0.953115
0.766924
0.518060
0.307116
0.173357
0.160481
0.107674
0.027772
-0.009076
0.001025
0.019108
0.004982
-0.017582
-0.021705
-0.016800
-0.007902
0.019370
0.028797
0.036179
0.057969
0.082848
0.113097
0.094095
0.025129
0.002726
0.004891
0.010598
0.016053
0.016276
0.016892
0.031845
-0.039341
-0.265213
-0.581213
-0.830392
-0.931101
-1.043071
-1.282790
-1.607879
-1.893747
-2.045602
-2.135488
-2.283310
-2.439930
-2.543638
-2.596872
-2.622723
-2.628436
-2.623648
-2.617605
-2.617897
-2.628935
-2.651345
-2.678151
-2.715135
-2.769910
-2.826930
-2.874197
-2.902213
-2.906069
-2.881076
-2.825756
-2.745272
-2.644786
-2.537085
-2.440056
-2.377570
-2.408783
-2.550881
-2.778289
-2.973917
-3.283799
-3.372289
-3.341819
-3.276797
-3.235074
-3.217597
-3.225841
-3.254476
-3.294148
-3.343356
-3.396538
-3.443568
-3.489225
-3.662820
-4.009082
-4.518791
-5.159925
-5.897888
0.000000
0.996724
1.800370
1.976733
1.998886
1.999944
2.000000
2.000000
2.000000
2.000000
2.000000
2.000000
2.000000
2.000000
2.000000
2.000000
2.000000
2.000000
2.000000
2.000000
2.000000
2.000000
2.000000
2.000000
2.000000
2.000000
2.000000
2.000000
2.000000
2.000000
2.000000
2.000000
2.000000
2.000000
2.000000
2.000000
2.000000
2.000000
2.000000
2.000000
2.000000
2.000000
2.000000
2.000000
2.000000
2.000000
2.000000
2.000000
2.000000
2.000000
2.000000
2.000000
2.000000
2.000000
2.000000
2.000000
2.000000
2.000000
2.000000
2.000000
2.000000
2.000000
2.000000
2.000000
2.000000
2.000000
2.000000
2.000000
2.000000
2.000000
1.999361
1.999573
1.942620
1.742903
1.497246
1.292302
1.173330
1.159398
1.103071
1.027117
0.990918
1.000974
1.018870
1.004499
0.982413
0.978295
0.983200
0.992095
1.018739
1.028795
1.036160
1.057565
1.082492
1.112564
1.090299
1.024884
1.002726
1.004889
1.010571
1.016039
1.016273
1.016892
1.031827
0.960558
0.734787
0.418787
0.169608
0.068417
-0.050010
-0.329989
-0.654602
-0.918054
-1.048695
-1.137412
-1.300572
-1.452194
-1.546101
-1.597231
-1.622790
-1.628445
-1.623664
-1.617605
-1.617897
-1.629055
-1.651698
-1.678524
-1.715928
-1.771733
-1.828421
-1.874988
-1.902361
-1.906111
-1.881878
-1.827933
-1.749408
-1.650421
-1.543040
-1.442052
-1.377570
-1.409276
-1.569705
-1.812779
-2.014408
-2.365842
-2.372461
-2.344817
-2.278296
-2.235228
-2.217597
-2.225875
-2.255250
-2.295170
-2.344827
-2.398057
-2.444517
-2.495251
-2.718886
-3.157789
-3.775271
-4.518356
-5.343342
0.000000
0.987283
1.976733
2.777954
2.996795
2.995821
2.999994
2.999999
3.000000
3.000000
3.000000
3.000000
3.000000
3.000000
3.000000
3.000000
3.000000
3.000000
3.000000
3.000000
3.000000
3.000000
3.000000
3.000000
3.000000
3.000000
3.000000
3.000000
3.000000
3.000000
3.000000
3.000000
3.000000
3.000000
3.000000
3.000000
3.000000
3.000000
3.000000
3.000000
3.000000
3.000000
3.000000
3.000000
3.000000
3.000000
3.000000
3.000000
3.000000
3.000000
3.000000
3.000000
3.000000
3.000000
3.000000
3.000000
3.000000
3.000000
3.000000
3.000000
3.000000
3.000000
3.000000
3.000000
3.000000
3.000000
3.000000
3.000000
3.000000
3.000000
2.999239
2.999514
2.925466
2.711335
2.471657
2.279629
2.173306
2.158107
2.098790
2.026477
1.990916
2.000924
2.018635
2.004030
1.982406
1.978295
1.983192
1.992055
2.018127
2.028792
2.036144
2.057172
2.082131
2.112037
2.086776
2.024642
2.002726
2.004887
2.010543
2.016025
2.016271
2.016891
2.031809
1.943547
1.690711
1.380681
1.165731
1.067721
0.949632
0.670011
0.345398
0.081223
-0.050760
-0.139710
-0.320854
-0.462888
-0.547513
-0.597526
-0.622844
-0.628451
-0.623676
-0.617605
-0.617897
-0.629147
-0.651966
-0.678803
-0.716536
-0.773143
-0.829510
-0.875563
-0.902466
-0.906141
-0.882457
-0.829489
-0.752410
-0.654510
-0.547797
-0.444133
-0.377570
-0.409778
-0.586767
-0.841933
-1.103312
-1.472405
-1.372485
-1.347924
-1.279893
-1.235384
-1.217597
-1.225909
-1.256063
-1.296190
-1.346326
-1.399567
-1.445433
-1.511305
-1.829828
-2.407086
-3.157423
-4.008384
-4.915195
0.000000
0.999920
1.998886
2.996795
3.800835
3.989736
3.997721
3.999998
4.000000
4.000000
4.000000
4.000000
4.000000
4.000000
4.000000
4.000000
4.000000
4.000000
4.000000
4.000000
4.000000
4.000000
4.000000
4.000000
4.000000
4.000000
4.000000
4.000000
4.000000
4.000000
4.000000
4.000000
4.000000
4.000000
4.000000
4.000000
4.000000
4.000000
4.000000
4.000000
4.000000
4.000000
4.000000
4.000000
4.000000
4.000000
4.000000
4.000000
4.000000
4.000000
4.000000
4.000000
4.000000
4.000000
4.000000
4.000000
4.000000
4.000000
4.000000
4.000000
4.000000
4.000000
4.000000
4.000000
4.000000
4.000000
4.000000
4.000000
4.000000
3.999999
3.998392
3.999163
3.903152
3.678243
3.446998
3.269249
3.173287
3.156555
3.094888
3.025856
2.990916
3.000874
3.018406
3.003579
2.982398
2.978295
2.983181
2.992003
3.017541
3.028785
3.036128
3.056791
3.081766
3.111517
3.083574
3.024405
3.002726
3.004884
3.010516
3.016010
3.016268
3.016891
3.031287
2.913024
2.636957
2.349747
2.162664
2.065960
1.921645
1.624037
1.303421
1.071420
0.948798
0.860290
0.679146
0.537112
0.452487
0.402474
0.377156
0.371549
0.376324
0.382395
0.382103
0.370853
0.348034
0.321197
0.283464
0.226857
0.170490
0.124437
0.097534
0.093859
0.117543
0.170511
0.247590
0.345490
0.452203
0.555867
0.622430
0.590222
0.413233
0.153191
-0.337023
-0.601225
-0.372489
-0.351112
-0.281569
-0.235542
-0.217597
-0.225944
-0.256907
-0.297208
-0.347848
-0.401070
-0.446322
-0.556669
-1.064073
-1.829844
-2.718765
-3.662604
-4.631063
0.000000
0.999981
1.999944
2.995821
3.989736
4.792446
4.993652
4.996940
4.999997
4.999999
5.000000
5.000000
5.000000
5.000000
5.000000
5.000000
5.000000
5.000000
5.000000
5.000000
5.000000
5.000000
5.000000
5.000000
5.000000
5.000000
5.000000
5.000000
5.000000
5.000000
5.000000
5.000000
5.000000
5.000000
5.000000
5.000000
5.000000
5.000000
5.000000
5.000000
5.000000
5.000000
5.000000
5.000000
5.000000
5.000000
5.000000
5.000000
5.000000
5.000000
5.000000
5.000000
5.000000
5.000000
5.000000
5.000000
5.000000
5.000000
5.000000
5.000000
5.000000
5.000000
5.000000
5.000000
5.000000
5.000000
5.000000
5.000000
4.999999
4.999995
4.996849
4.997610
4.876936
4.646108
4.424969
4.260807
4.173275
4.154752
4.091345
4.025256
3.990915
4.000825
4.018181
4.003147
3.982390
3.978295
3.983169
3.991947
4.016978
4.028774
4.036114
4.056425
4.081395
4.111240
4.080678
4.024172
4.002726
4.004882
4.010489
4.015995
4.016265
4.016891
4.028948
3.875710
3.577018
3.245785
2.950909
3.029325
2.878088
2.567480
2.268264
2.063055
1.947377
1.847194
1.670215
1.533751
1.450639
1.401884
1.377140
1.371549
1.376312
1.382373
1.382087
1.370639
1.347810
1.320748
1.281822
1.224974
1.168989
1.123735
1.097527
1.093859
1.117269
1.168397
1.243757
1.339813
1.445996
1.552105
1.619992
1.490405
0.930755
0.304483
0.033063
0.200008
0.627511
0.648888
0.718431
0.764458
0.782403
0.774056
0.743093
0.702792
0.652152
0.598930
0.553678
0.313004
-0.558019
-1.513293
-2.497576
-3.491771
-4.489345
0.000000
1.000000
2.000000
2.999994
3.997721
4.993652
5.797034
5.991922
5.997330
5.999998
5.999999
6.000000
6.000000
6.000000
6.000000
6.000000
6.000000
6.000000
6.000000
6.000000
6.000000
6.000000
6.000000
6.000000
6.000000
6.000000
6.000000
6.000000
6.000000
6.000000
6.000000
6.000000
6.000000
6.000000
6.000000
6.000000
6.000000
6.000000
6.000000
6.000000
5.999630
5.998343
5.927882
5.998343
5.997461
5.999998
5.999999
6.000000
6.000000
6.000000
6.000000
6.000000
6.000000
6.000000
6.000000
6.000000
6.000000
6.000000
6.000000
6.000000
6.000000
6.000000
6.000000
6.000000
6.000000
6.000000
5.999999
5.998594
5.997170
5.863088
5.276807
4.732123
4.286708
3.950779
4.027953
4.047959
4.108474
4.207939
4.249620
4.207928
4.175792
4.221146
4.322603
4.498171
4.742049
4.963414
4.980773
4.991907
5.016465
5.028758
5.036102
5.056073
5.081021
5.110982
5.078051
5.023945
5.002726
5.004880
5.010462
5.015980
5.015711
4.800928
4.075131
3.371441
2.774882
2.307054
1.951545
2.032131
2.184014
2.183811
2.295028
2.523983
2.857538
2.830439
2.659249
2.529476
2.448853
2.401314
2.377124
2.371549
2.376301
2.382350
2.382069
2.370426
2.347590
2.320265
2.280160
2.223099
2.167518
2.123057
2.097520
2.093859
2.116999
2.166388
2.240023
2.334267
2.422298
2.007997
1.270410
0.594533
-0.055647
-0.695517
-0.966937
-0.799992
-0.313003
0.056955
0.524369
0.934002
1.191068
1.655809
1.739251
1.701986
1.651537
1.598469
1.353341
0.543583
-0.456417
-1.455952
-2.455482
-3.455008
-4.454530
0.000000
1.000000
2.000000
2.999999
3.999998
4.996940
5.841144
5.644503
5.339695
5.104548
5.247675
5.411900
5.596991
5.796242
5.986657
6.001066
6.091217
6.210595
6.355371
6.543575
6.781582
6.987812
6.997367
7.000000
6.999999
7.000000
7.000000
7.000000
7.000000
7.000000
7.000000
7.000000
7.000000
6.999998
6.999753
6.994297
6.923446
6.449854
5.959612
5.568520
5.277969
5.074923
4.927889
5.014154
4.997461
5.043728
5.102829
5.128630
5.075791
5.159985
5.255718
5.265144
5.335269
5.488597
5.727322
6.023808
6.336624
6.666267
6.970915
6.995548
6.999989
6.999998
7.000000
6.999990
6.999960
6.989066
6.996671
6.658754
5.844601
5.144523
4.492162
3.890523
3.366391
2.951039
3.031036
3.048035
3.112039
3.215255
3.250713
3.208453
3.175792
3.222199
3.331914
3.523241
3.784315
4.051294
4.215091
4.372579
4.615992
4.968427
5.426291
5.945872
6.079735
6.110661
6.075659
6.023722
6.002726
6.004265
5.998897
5.896969
5.220413
4.331186
3.477219
2.680569
1.975940
1.401935
0.953456
1.035421
1.203339
1.185752
1.301400
1.565272
1.929088
2.087094
2.198615
2.359671
2.717931
3.112574
3.365902
3.366220
3.376224
3.382337
3.382050
3.370216
3.347372
3.319734
3.278473
3.221237
3.166089
3.122410
3.097514
3.093859
3.116735
3.164509
3.237770
2.950073
2.196925
1.392374
0.557858
-0.155176
-0.810765
-1.500477
-1.934818
-1.714253
-1.275141
-0.938984
-0.475631
-0.060776
0.347140
0.948311
1.401298
1.931323
2.513685
2.388116
1.569535
0.571440
-0.428560
-1.428089
-2.427631
-3.427189
-4.426764
0.000000
1.000000
2.000000
3.000000
4.000000
4.999950
5.122896
4.712045
4.373555
4.104548
4.258918
4.427142
4.616861
4.817502
5.003469
5.003825
5.099611
5.219484
5.368444
5.567648
5.818653
6.091855
6.292877
6.462573
6.692553
7.008306
7.408034
7.897101
7.997005
7.999277
8.000000
7.999990
7.994380
7.999938
7.757474
7.003428
6.283504
5.637996
5.084850
4.639975
4.310898
4.086822
3.927908
4.018062
3.997461
4.044825
4.105013
4.130761
4.075791
4.163705
4.260882
4.265798
4.340660
4.510518
4.771170
5.078225
5.389832
5.732899
6.152588
6.667189
7.272437
7.869873
7.995988
7.998834
7.999689
7.704356
6.874046
6.014621
5.201045
4.444153
3.746686
3.097593
2.489215
1.951819
2.034319
2.048188
2.116201
2.223005
2.251834
2.208995
2.175792
2.223300
2.343004
2.552720
2.832257
3.083788
3.220243
3.388475
3.669311
4.073883
4.592028
5.206170
5.896672
6.646152
7.055496
7.023298
6.990917
7.002698
6.663279
5.772802
4.830694
3.900865
2.989719
2.108857
1.282563
0.555921
-0.040812
0.038785
0.225830
0.185752
0.308110
0.604504
0.988860
1.088413
1.203759
1.378301
1.836037
2.181924
2.390556
2.746754
3.143358
3.514359
3.946097
4.326710
4.347155
4.319152
4.276761
4.219392
4.164703
4.121796
4.097507
4.093859
4.115274
3.890022
3.085966
2.289759
1.549643
0.825344
-0.129756
-0.849459
-1.547128
-2.245614
-2.826214
-2.625552
-2.224962
-1.853202
-1.399752
-1.013555
-0.619165
-0.043324
0.517790
1.138173
1.818403
2.480126
1.592678
0.594475
-0.405525
-1.405504
-2.405484
-3.405464
-4.405445
0.000000
0.999996
1.999987
2.999975
3.999960
4.769165
4.249446
3.795782
3.419057
3.104548
3.272055
3.442085
3.637870
3.838247
4.019007
4.006680
4.108336
4.228116
4.382708
4.595303
4.859505
5.131223
5.304003
5.477320
5.733820
6.084963
6.525137
7.047776
7.645381
8.308378
8.892456
8.995272
8.833151
8.109370
7.235609
6.396991
5.607553
4.885988
4.255220
3.739269
3.355568
3.100783
2.927966
3.022329
2.997461
3.045974
3.107269
3.133156
3.075791
3.167763
3.266043
3.266624
3.346713
3.537916
3.821883
4.132652
4.443630
4.815045
5.290953
5.875397
6.552559
7.302128
8.106952
8.824408
8.377792
7.398895
6.457671
5.537230
4.650113
3.813678
3.046355
2.350139
1.677006
0.954161
1.037758
1.048438
1.121012
1.231115
1.252980
1.209552
1.175792
1.224448
1.356187
1.586525
1.886490
2.107032
2.223069
2.412202
2.745503
3.217158
3.808901
4.494808
5.249861
6.055386
6.897346
7.730124
7.949089
7.400143
6.417968
5.462021
4.504412
3.550058
2.604111
1.669949
0.744544
-0.194533
-0.820590
-0.961068
-0.774170
-0.814248
-0.691890
-0.395496
-0.011079
0.089332
0.211382
0.399360
0.969430
1.211586
1.401635
1.853300
2.227171
2.604307
3.108491
3.751265
4.502109
5.171081
5.263223
5.217571
5.163506
5.121527
5.089436
4.965475
4.283368
3.416991
2.547595
1.681144
0.835126
0.015350
-0.980989
-1.653876
-2.304835
-2.979106
-3.633287
-3.545039
-3.156186
-2.756439
-2.331929
-1.939428
-1.464835
-0.859567
-0.281857
0.404027
1.139347
1.929027
1.600825
0.600844
-0.399156
-1.399156
-2.399156
-3.399156
-4.399156
-0.000000
1.000000
1.999445
2.998845
3.998227
4.052360
3.418132
2.902470
2.481838
2.104548
2.287493
2.455996
2.660297
2.857543
3.033453
3.006680
3.113812
3.236532
3.398588
3.627296
3.903857
4.166800
4.309988
4.497693
4.788770
5.181888
5.670756
6.248286
6.903654
7.623389
8.396341
9.221408
8.640407
7.701256
6.780689
5.884206
5.024090
4.218938
3.495166
2.885829
2.422581
2.117252
1.928141
2.026987
1.997461
2.047179
2.109595
2.135848
2.075791
2.172195
2.271135
2.267401
2.352771
2.572293
2.878051
3.183713
3.503947
3.928318
4.483952
5.154217
5.911818
6.731879
7.599847
8.513827
8.100148
7.121365
6.149737
5.184271
4.232230
3.306759
2.431076
1.638046
0.927040
-0.038814
0.041259
0.048771
0.126385
0.239453
0.254145
0.210122
0.175792
0.225632
0.371315
0.621968
0.947738
1.119523
1.225311
1.449188
1.856990
2.416089
3.095923
3.859481
4.679133
5.537214
6.425061
7.348464
8.006870
7.048960
6.107975
5.164742
4.212466
3.251266
2.284594
1.317414
0.352578
-0.647422
-1.499394
-1.941899
-1.774170
-1.812268
-1.648144
-1.309834
-1.007455
-0.910219
-0.788618
-0.600640
-0.029388
0.214648
0.415174
0.978614
1.296600
1.741441
2.369322
3.135307
3.988349
4.894106
5.821836
6.212031
6.154886
6.100320
5.623498
4.692427
3.803835
2.932018
2.064923
1.182643
0.278069
-0.552620
-1.465298
-2.310967
-3.046202
-3.727630
-4.399216
-4.467279
-4.076139
-3.669351
-3.258986
-2.822203
-2.274233
-1.646766
-0.987319
-0.278571
0.510274
1.385071
1.582156
0.583536
-0.416464
-1.416316
-2.416171
-3.416027
-4.415886
0.000000
0.994018
1.988671
2.984673
3.982058
3.415253
2.665228
2.048647
1.568689
1.104548
1.305547
1.468171
1.683555
1.873924
2.047349
2.006680
2.119878
2.245112
2.416419
2.664031
2.950963
3.196144
3.312679
3.528449
3.862696
4.307029
4.856987
5.501539
6.223352
7.005102
7.838523
8.724964
8.358315
7.383618
6.425628
5.480843
4.557087
3.668872
2.841275
2.113412
1.534139
1.136565
0.928664
1.032038
0.997462
1.048436
1.111987
1.138858
1.075791
1.177012
1.276096
1.267401
1.356531
1.613579
1.934274
2.228896
2.585663
3.099735
3.761247
4.529569
5.370199
6.258164
7.186727
8.134379
7.893285
6.903351
5.924049
4.943726
3.961185
2.978291
1.998156
1.024574
0.059164
-0.938066
-0.958529
-0.951229
-0.873615
-0.760547
-0.745855
-0.789878
-0.824208
-0.774368
-0.628685
-0.351492
0.016077
0.124026
0.227964
0.508549
1.019740
1.695142
2.473796
3.313978
4.194125
5.095956
6.028190
6.978377
7.622662
6.721507
5.770457
4.838116
3.906423
2.968088
2.016376
1.050332
0.077144
-0.919299
-1.895988
-2.716008
-2.715188
-2.802805
-2.582884
-2.247044
-2.004387
-1.909103
-1.772570
-1.470647
-1.001074
-0.778873
-0.584826
-0.019743
0.389344
1.003827
1.798274
2.691656
3.633944
4.602633
5.589950
6.584464
6.982866
6.216746
5.249653
4.301406
3.369242
2.460126
1.579103
0.710622
-0.247732
-1.095510
-1.957136
-2.836418
-3.675652
-4.437547
-5.144061
-5.389028
-4.994724
-4.588553
-4.163661
-3.661719
-3.054080
-2.381925
-1.653354
-0.877779
-0.077186
0.906875
1.511215
0.552266
-0.447734
-1.447031
-2.446346
-3.445685
-4.445047
-0.123411
0.876589
1.874736
2.871671
3.862653
2.944823
2.059192
1.280908
0.681435
0.104548
0.325955
0.478511
0.703332
0.885182
1.061543
1.006680
1.126567
1.253744
1.436615
1.704353
1.999850
2.217461
2.313802
2.576135
2.963317
3.474370
4.103170
4.827551
5.621841
6.468753
7.366239
8.285557
8.145936
7.152476
6.168870
5.191989
4.222948
3.267761
2.341595
1.476652
0.732049
0.158415
-0.069767
0.037396
-0.002535
0.049736
0.114428
0.142138
0.075791
0.182148
0.280911
0.267401
0.360511
0.653538
0.977280
1.268757
1.720499
2.372401
3.160332
4.027666
4.941951
5.886412
6.851746
7.694768
7.646699
6.696262
5.715459
4.744196
3.770322
2.790618
1.802791
0.808267
-0.186452
-1.183075
-1.861506
-1.933058
-1.865977
-1.760476
-1.745855
-1.789250
-1.824183
-1.770334
-1.591498
-1.274661
-0.982791
-0.875974
-0.772036
-0.395081
0.240314
1.077738
1.952185
2.862877
3.800055
4.732087
5.697993
6.543914
6.984339
6.422255
5.447316
4.495879
3.558721
2.632503
1.710897
0.774791
-0.215384
-1.181642
-2.157694
-3.130978
-3.662534
-3.779865
-3.515034
-3.204189
-3.002432
-2.905847
-2.721800
-2.355482
-1.982109
-1.765080
-1.450887
-0.880291
-0.370922
0.513381
1.474321
2.461088
3.456534
4.452546
5.451207
6.304667
6.665604
5.984468
4.992854
4.012491
3.036673
2.066712
1.103738
0.147195
-0.843890
-1.693988
-2.515113
-3.358254
-4.217437
-5.052654
-5.832109
-6.321989
-5.915583
-5.500690
-5.030404
-4.454853
-3.788908
-3.067296
-2.306174
-1.524498
-0.705781
0.266499
1.169741
0.546057
-0.453943
-1.453249
-2.452369
-3.451176
-4.449564
-0.257256
0.742744
1.733247
2.695608
3.628433
2.687528
1.698368
0.723526
-0.208803
-0.895452
-0.674045
-0.521489
-0.296668
-0.112932
0.076730
0.006680
0.133780
0.262338
0.459068
0.741919
1.050196
1.230447
1.314442
1.647476
2.103842
2.709163
3.437548
4.249676
5.116119
6.027804
6.972480
7.783473
7.875458
6.986546
5.989873
4.999304
4.011262
3.023710
2.036778
1.050872
0.066508
-0.622775
-1.032600
-0.962404
-1.001535
-0.950195
-0.885572
-0.857862
-0.924209
-0.817852
-0.719089
-0.732599
-0.639489
-0.346462
-0.022094
0.307412
0.968464
1.801209
2.713218
3.661722
4.618973
5.593165
6.478194
6.954810
7.101642
6.484722
5.495338
4.519565
3.551034
2.590372
1.637010
0.680820
-0.319180
-1.316197
-2.300717
-2.878506
-2.857073
-2.760382
-2.745855
-2.788436
-2.824116
-2.758511
-2.535051
-2.217873
-1.981276
-1.875952
-1.676750
-1.095312
-0.381396
0.531184
1.502044
2.492331
3.489093
4.457855
5.347297
5.806235
6.033239
6.081713
5.199384
4.212470
3.242355
2.282502
1.337217
0.408198
-0.591802
-1.536027
-2.476080
-3.435141
-4.324541
-4.757993
-4.454653
-4.175411
-4.001273
-3.893621
-3.648708
-3.278073
-2.969683
-2.718708
-2.235832
-1.484046
-0.564185
0.435815
1.435815
2.435815
3.435815
4.381204
5.199007
5.558608
5.771645
5.718518
4.807302
3.807423
2.807787
1.808877
0.812149
-0.178036
-1.161898
-2.113357
-2.983880
-3.748402
-4.429550
-5.045696
-5.615649
-6.159565
-6.676756
-6.387074
-5.846206
-5.197225
-4.475641
-3.705056
-2.891098
-2.027908
-1.107381
-0.149781
0.836290
0.606676
-0.393324
-1.386955
-2.380035
-3.372463
-4.364294
-0.436418
0.563582
1.457787
2.338641
3.234617
2.601809
1.610109
0.635006
-0.290302
-0.767348
-1.436531
-1.501615
-1.279380
-1.097365
-0.921606
-0.993320
-0.866220
-0.737662
-0.540932
-0.244022
0.103113
0.237226
0.315085
0.738463
1.311872
2.052667
2.892726
3.786873
4.716724
5.679596
6.561892
7.011155
7.177581
6.810586
5.842898
4.857087
3.864814
2.873196
1.881716
0.888799
-0.109595
-1.069669
-1.842677
-1.943664
-2.000789
-1.948019
-1.885320
-1.857862
-1.920150
-1.814792
-1.719089
-1.732344
-1.612937
-1.310038
-0.960161
-0.445392
0.406004
1.406004
2.406004
3.406004
4.344604
5.276498
5.795149
5.981827
6.174423
6.188616
5.321527
4.324157
3.331902
2.340657
1.350503
0.361288
-0.638712
-1.595825
-2.570090
-3.473182
-3.849806
-3.760281
-3.745855
-3.787584
-3.824087
-3.734986
-3.476575
-3.182543
-2.979991
-2.813224
-2.216199
-1.272029
-0.307868
0.692132
1.681330
2.667430
3.653703
4.373015
4.664091
4.829837
5.049172
5.385312
5.025251
4.029931
3.035811
2.042319
1.049457
0.057078
-0.942418
-1.896602
-2.832544
-3.755837
-4.475904
-4.981861
-5.390018
-5.156195
-4.999889
-4.869563
-4.587947
-4.229094
-3.804334
-3.052813
-2.102320
-1.136420
-0.161578
0.830628
1.785853
2.739453
3.700255
4.339154
4.431464
4.569843
4.790868
5.069136
4.894847
3.910972
2.916736
1.923279
0.931002
-0.058961
-0.873863
-1.649956
-2.360814
-3.020746
-3.647529
-4.225204
-4.776126
-5.308236
-5.808761
-6.296087
-6.597005
-5.862814
-5.051714
-4.176131
-3.256811
-2.291384
-1.301748
-0.305802
0.694198
0.726092
-0.273908
-1.262566
-2.251289
-3.240157
-4.229133
-0.948514
0.046500
0.967796
1.902552
2.851963
2.939340
2.027387
1.174159
0.432032
-0.109934
-0.766308
-1.118348
-1.577779
-1.955475
-1.921051
-1.988548
-1.863453
-1.727043
-1.499829
-1.173734
-0.886850
-0.762774
-0.684915
-0.210211
0.646683
1.549978
2.484682
3.439019
4.416263
5.347921
5.882024
6.030224
6.184358
6.329570
5.657060
4.735657
3.736138
2.737580
1.741905
0.754881
-0.206190
-0.969329
-1.694299
-2.024078
-2.265414
-2.618791
-2.871452
-2.857862
-2.914767
-2.810953
-2.719089
-2.732197
-2.578592
-2.145125
-1.392522
-0.408765
0.591235
1.580953
2.568649
3.556913
4.364177
4.697293
4.829801
4.987242
5.197770
5.474765
5.204003
4.204034
3.204034
2.204034
1.204034
0.204034
-0.795966
-1.643417
-2.318597
-2.837589
-3.197928
-3.525028
-3.873031
-4.203215
-4.541846
-4.704777
-4.440042
-4.159554
-3.767397
-2.956195
-1.985758
-1.014601
-0.042416
0.956060
1.928631
2.897102
3.594674
3.523749
3.668738
3.840348
4.084604
4.411527
4.696258
3.924562
2.924691
1.925078
0.926238
-0.070280
-1.008001
-1.866655
-2.614974
-3.192121
-3.647121
-4.063724
-4.464504
-4.876116
-5.291400
-5.709034
-5.392947
-4.618680
-3.645742
-2.715040
-1.792609
-0.858958
0.134876
1.110001
2.078160
3.037749
3.562124
3.420228
3.442557
3.586445
3.828910
4.118009
4.446931
4.124209
3.149957
2.215495
1.322883
0.494098
-0.294263
-0.967688
-1.606980
-2.243108
-2.839111
-3.387747
-3.932008
-4.449122
-4.932385
-5.425623
-5.925632
-5.267576
-4.478369
-3.678383
-2.861332
-2.008464
-1.100121
-0.149965
0.834174
0.873385
-0.125123
-1.114768
-2.104535
-3.094113
-4.083369
-1.329632
-0.380749
0.578935
1.565496
2.561017
3.437006
2.580869
1.870226
1.304992
0.874380
0.217462
-0.138526
-0.678121
-1.002339
-1.307013
-1.733611
-1.989502
-2.020881
-2.106200
-2.120047
-1.881562
-1.761794
-1.555025
-0.826325
0.173675
1.173675
2.173675
3.173675
4.153191
4.756916
4.921348
5.032507
5.200242
5.455856
5.688284
4.967493
4.001163
3.047683
2.115728
1.221268
0.392886
-0.323096
-0.889137
-1.030760
-1.296997
-1.704217
-1.974687
-2.163550
-2.477577
-2.835769
-2.945929
-3.031840
-2.885186
-2.114899
-1.128205
-0.135199
0.864801
1.835322
2.801200
3.588734
3.584527
3.702145
3.833901
4.003058
4.229196
4.528000
4.875247
4.395924
3.416208
2.444421
1.483525
0.542192
-0.361513
-0.949341
-1.475753
-1.925660
-2.233353
-2.582467
-2.936470
-3.253778
-3.609228
-3.988862
-4.317460
-4.489997
-3.710073
-2.722271
-1.746636
-0.772953
0.219138
1.193635
2.166710
2.865743
2.713002
2.596814
2.676749
2.861228
3.129373
3.488372
3.889734
4.032494
3.147452
2.175908
1.211024
0.252433
-0.545741
-1.221141
-1.845574
-2.298895
-2.732415
-3.143300
-3.547967
-3.967213
-4.382230
-4.800648
-5.096387
-4.322379
-3.337331
-2.368501
-1.413586
-0.472359
0.527641
1.471317
2.409981
2.888577
2.600731
2.420228
2.442809
2.610025
2.872981
3.168119
3.513818
3.887620
3.540376
2.684130
1.881768
1.135915
0.431119
-0.228433
-0.815160
-1.456089
-1.998341
-2.541576
-3.086121
-3.576807
-4.052580
-4.567974
-5.109133
-4.636713
-3.860428
-3.072169
-2.278800
-1.487461
-0.675152
0.290456
1.182341
1.017670
0.027916
-0.971753
-1.963340
-2.952609
-3.941520
-1.230821
-0.281976
0.702643
1.692147
2.683619
3.676681
3.274415
2.681370
2.193671
1.721311
1.190158
0.852635
0.304229
-0.026063
-0.351486
-0.819181
-0.999492
-1.023552
-1.112907
-1.208655
-1.119292
-1.151327
-1.104780
-0.505724
0.341083
1.328954
2.317937
3.203872
3.663830
3.818081
3.923528
4.037351
4.223058
4.507590
4.840750
5.031663
4.354434
3.457684
2.602728
1.813752
1.125526
0.571184
0.109695
-0.033254
-0.352508
-0.785207
-0.988513
-1.176348
-1.552831
-1.898300
-1.947131
-2.043792
-2.065587
-2.000143
-1.122161
-0.123869
0.876131
1.874574
2.772359
2.783476
2.640206
2.707453
2.845163
3.021426
3.266456
3.589029
3.908079
4.196394
3.702257
2.773167
1.878703
1.051032
0.351019
-0.140356
-0.563425
-0.984986
-1.259033
-1.655946
-1.993884
-2.299438
-2.690155
-3.060151
-3.361397
-3.686420
-3.477815
-2.506085
-1.510328
-0.516437
0.483563
1.448301
2.301051
2.009734
1.722096
1.596814
1.679646
1.889377
2.183341
2.578355
2.976880
3.365936
3.425061
2.525105
1.645242
0.840096
0.146266
-0.431846
-0.978962
-1.360902
-1.826582
-2.217317
-2.637544
-3.058292
-3.472424
-3.891637
-4.294101
-4.100972
-3.122256
-2.127480
-1.133438
-0.140206
0.857725
1.817612
2.424785
1.938044
1.620123
1.420228
1.443066
1.638427
1.918184
2.218339
2.588849
2.961800
3.339775
3.273566
2.535538
1.841601
1.185694
0.568406
-0.005376
-0.640806
-1.111011
-1.705327
-2.229125
-2.687804
-3.182381
-3.729121
-4.270806
-3.986108
-3.229064
-2.455809
-1.661089
-0.846313
-0.023796
0.971606
1.772300
1.160148
0.170221
-0.829779
-1.824279
-2.817405
-3.810515
-0.962738
0.035350
0.973926
1.925473
2.888764
3.867273
4.063446
3.541136
3.069302
2.588481
2.135267
1.735552
1.264842
0.971816
0.648514
0.177928
-0.000163
-0.025015
-0.120377
-0.213562
-0.119292
-0.178067
-0.224891
0.185589
0.877932
1.696074
2.546863
2.527398
2.687706
2.820463
2.927016
3.044726
3.252704
3.570950
3.901104
4.157104
4.427128
3.983336
3.211723
2.521144
1.934143
1.461564
1.108273
0.966429
0.647492
0.214793
0.011279
-0.192700
-0.631340
-0.935637
-0.950542
-1.052179
-1.105646
-1.294466
-0.867900
-0.104504
0.880965
1.876020
2.131649
1.799188
1.640206
1.709496
1.859583
2.040925
2.312315
2.656455
2.953370
3.237969
3.623756
3.236792
2.446959
1.772122
1.259223
0.844297
0.436575
0.014354
-0.279297
-0.734584
-1.034755
-1.344951
-1.787369
-2.114181
-2.399139
-2.749517
-3.001886
-2.287553
-1.329713
-0.335967
0.664033
1.653151
1.647505
1.095967
0.735833
0.596814
0.681937
0.916964
1.246732
1.677444
2.051004
2.445866
2.839869
3.003275
2.244478
1.564155
0.986371
0.473392
0.019304
-0.406760
-0.920764
-1.272776
-1.737942
-2.140471
-2.564554
-2.979545
-3.374690
-3.670319
-2.914478
-1.952210
-0.968543
0.030959
1.027002
1.971289
1.566725
1.023674
0.645447
0.420228
0.443327
0.665411
0.954723
1.269673
1.671223
2.027782
2.419804
2.833959
3.196555
2.590009
1.987554
1.456837
0.993482
0.316774
-0.189181
-0.875105
-1.334747
-1.792723
-2.338905
-2.902006
-3.420805
-3.309665
-2.572175
-1.821559
-1.057385
-0.277572
0.539457
1.435121
2.220752
1.271674
0.276297
-0.723703
-1.721740
-2.719306
-3.716887
-0.789969
0.210031
1.191636
2.165467
3.133104
4.116963
4.853355
4.415102
3.944575
3.478982
3.050110
2.626272
2.227726
1.925746
1.551465
1.153770
0.999835
0.974985
0.879623
0.786438
0.880708
0.821933
0.758096
1.118417
1.610276
2.197043
1.892750
1.600265
1.697378
1.827606
1.930902
2.052877
2.291897
2.646217
2.950013
3.180219
3.475365
3.828158
3.916333
3.306122
2.792863
2.386931
2.104964
1.925437
1.571119
1.197789
1.007307
0.803124
0.368660
0.064363
0.049147
-0.062747
-0.106078
-0.328361
-0.221970
0.480019
1.262105
1.950656