# vtk DataFile Version 3.0
Para0
ASCII
DATASET RECTILINEAR_GRID
DIMENSIONS 161 81 1
X_COORDINATES 161 int
0 1 2 3 4 5 6 7 8 9 10 11 12 13 14 15 16 17 18 19 20 21 22 23 24 25 26 27 28 29 30 31 32 33 34 35 36 37 38 39 40 41 42 43 44 45 46 47 48 49 50 51 52 53 54 55 56 57 58 59 60 61 62 63 64 65 66 67 68 69 70 71 72 73 74 75 76 77 78 79 80 81 82 83 84 85 86 87 88 89 90 91 92 93 94 95 96 97 98 99 100 101 102 103 104 105 106 107 108 109 110 111 112 113 114 115 116 117 118 119 120 121 122 123 124 125 126 127 128 129 130 131 132 133 134 135 136 137 138 139 140 141 142 143 144 145 146 147 148 149 150 151 152 153 154 155 156 157 158 159 160 
Y_COORDINATES 81 int
0 1 2 3 4 5 6 7 8 9 10 11 12 13 14 15 16 17 18 19 20 21 22 23 24 25 26 27 28 29 30 31 32 33 34 35 36 37 38 39 40 41 42 43 44 45 46 47 48 49 50 51 52 53 54 55 56 57 58 59 60 61 62 63 64 65 66 67 68 69 70 71 72 73 74 75 76 77 78 79 80 
Z_COORDINATES 1 int
0

POINT_DATA 13041
SCALARS distance float 1
LOOKUP_TABLE default
0.000000
0.000000
0.000000
0.000000
0.000000
0.000000
0.000000
0.000000
0.000000
0.000000
0.000000
0.000000
0.000000
0.000000
0.000000
0.000000
0.000000
0.000000
0.000000
0.000000
0.000000
0.000000
0.000000
0.000000
0.000000
0.000000
0.000000
0.000000
0.000000
0.000000
0.000000
0.000000
0.000000
0.000000
0.000000
0.000000
0.000000
0.000000
0.000000
0.000000
0.000000
0.000000
0.000000
0.000000
0.000000
0.000000
0.000000
0.000000
0.000000
0.000000
0.000000
0.000000
0.000000
0.000000
0.000000
0.000000
0.000000
0.000000
0.000000
0.000000
0.000000
0.000000
0.000000
0.000000
0.000000
0.000000
0.000000
0.000000
0.000000
0.000000
0.000000
-0.027857
-0.163089
-0.400472
-0.633723
-0.806867
-0.867530
-0.892896
-0.872013
-0.871331
-0.945308
-1.003668
-1.032675
-1.063284
-1.087115
-1.090607
-1.078705
-1.057737
-1.022565
-1.003996
-0.986477
-0.964173
-0.957035
-0.979040
-0.948457
-0.906429
-0.888389
-0.881522
-0.880393
-0.884015
-0.905412
-0.953487
-1.017764
-1.178551
-1.427515
-1.716475
-1.913045
-2.008990
-2.211569
-2.490506
-2.798263
-3.028583
-3.194364
-3.377137
-3.563587
-3.755607
-3.903489
-3.987073
-4.029551
-4.045591
-4.046690
-4.044484
-4.047356
-4.060684
-4.086735
-4.118907
-4.160466
-4.216162
-4.271328
-4.316860
-4.340472
-4.342162
-4.317671
-4.259384
-4.171979
-4.056199
-3.930384
-3.818262
-3.740728
-3.766124
-3.875861
-3.989781
-4.138367
-4.428816
-4.817818
-4.759221
-4.666881
-4.620252
-4.609480
-4.634026
-4.683611
-4.745511
-4.813227
-4.880280
-4.936833
-4.984408
-5.125193
-5.402109
-5.823649
-6.390624
-6.554281
0.000000
0.707107
0.996724
0.987283
0.999920
0.999981
1.000000
1.000000
1.000000
1.000000
1.000000
1.000000
1.000000
1.000000
1.000000
1.000000
1.000000
1.000000
1.000000
1.000000
1.000000
1.000000
1.000000
1.000000
1.000000
1.000000
1.000000
1.000000
1.000000
1.000000
1.000000
1.000000
1.000000
1.000000
1.000000
1.000000
1.000000
1.000000
1.000000
1.000000
1.000000
1.000000
1.000000
1.000000
1.000000
1.000000
1.000000
1.000000
1.000000
1.000000
1.000000
1.000000
1.000000
1.000000
1.000000
1.000000
1.000000
1.000000
1.000000
1.000000
1.000000
1.000000
1.000000
1.000000
1.000000
1.000000
1.000000
1.000000
1.000000
1.000000
0.999728
0.967971
0.836719
0.599526
0.366277
0.193133
0.132470
0.107116
0.127892
0.128585
0.053227
-0.003666
-0.032670
-0.063274
-0.087506
-0.090645
-0.078814
-0.058597
-0.022566
-0.003996
0.013523
0.035830
0.042970
0.020977
0.051544
0.093558
0.111611
0.118478
0.119605
0.115984
0.094588
0.046513
-0.018080
-0.187754
-0.474102
-0.755250
-0.914378
-1.006578
-1.228151
-1.546611
-1.857743
-2.044125
-2.196874
-2.387048
-2.585417
-2.774522
-2.910846
-2.988949
-3.030043
-3.045660
-3.046685
-3.044484
-3.047357
-3.060840
-3.087202
-3.119463
-3.161515
-3.218199
-3.272876
-3.317631
-3.340494
-3.342176
-3.318659
-3.262256
-3.178044
-3.064488
-2.938296
-2.821291
-2.740702
-2.766709
-2.891059
-3.003129
-3.148055
-3.497181
-3.821116
-3.763961
-3.668553
-3.620295
-3.609480
-3.634201
-3.684954
-3.747423
-3.815593
-3.882536
-3.938249
-3.987937
-4.162347
-4.509889
-5.021804
-5.680319
-6.390221
0.000000
0.996724
1.800370
1.976733
1.998886
1.999944
2.000000
2.000000
2.000000
2.000000
2.000000
2.000000
2.000000
2.000000
2.000000
2.000000
2.000000
2.000000
2.000000
2.000000
2.000000
2.000000
2.000000
2.000000
2.000000
2.000000
2.000000
2.000000
2.000000
2.000000
2.000000
2.000000
2.000000
2.000000
2.000000
2.000000
2.000000
2.000000
2.000000
2.000000
2.000000
2.000000
2.000000
2.000000
2.000000
2.000000
2.000000
2.000000
2.000000
2.000000
2.000000
2.000000
2.000000
2.000000
2.000000
2.000000
2.000000
2.000000
2.000000
2.000000
2.000000
2.000000
2.000000
2.000000
2.000000
2.000000
2.000000
2.000000
2.000000
2.000000
1.999353
1.962910
1.820494
1.584674
1.356528
1.187770
1.132331
1.110307
1.128883
1.126491
1.053191
0.996950
0.967941
0.936233
0.912471
0.909355
0.921186
0.941372
0.976597
0.995910
1.013430
1.035421
1.043057
1.022022
1.054772
1.094189
1.111611
1.118465
1.119602
1.116018
1.094590
1.046542
0.975437
0.811314
0.520781
0.238863
0.083929
-0.007630
-0.248296
-0.612182
-0.904874
-1.042765
-1.200129
-1.398566
-1.609161
-1.792327
-1.916969
-1.990612
-2.030507
-2.045726
-2.046679
-2.044484
-2.047358
-2.060994
-2.087664
-2.120007
-2.162569
-2.220228
-2.274336
-2.318356
-2.340507
-2.342183
-2.319573
-2.264878
-2.183787
-2.072528
-1.946389
-1.824571
-1.740691
-1.767403
-1.907854
-2.011959
-2.166387
-2.588937
-2.823089
-2.768633
-2.670336
-2.620339
-2.609479
-2.634381
-2.686351
-2.749354
-2.817990
-2.884776
-2.939647
-2.992466
-3.207922
-3.641881
-4.260208
-5.021367
-5.822835
0.000000
0.987283
1.976733
2.777954
2.996795
2.995821
2.999994
2.999999
3.000000
3.000000
3.000000
3.000000
3.000000
3.000000
3.000000
3.000000
3.000000
3.000000
3.000000
3.000000
3.000000
3.000000
3.000000
3.000000
3.000000
3.000000
3.000000
3.000000
3.000000
3.000000
3.000000
3.000000
3.000000
3.000000
3.000000
3.000000
3.000000
3.000000
3.000000
3.000000
3.000000
3.000000
3.000000
3.000000
3.000000
3.000000
3.000000
3.000000
3.000000
3.000000
3.000000
3.000000
3.000000
3.000000
3.000000
3.000000
3.000000
3.000000
3.000000
3.000000
3.000000
3.000000
3.000000
3.000000
3.000000
3.000000
3.000000
3.000000
3.000000
3.000000
2.999231
2.956542
2.798159
2.558564
2.338327
2.181285
2.132243
2.113492
2.129485
2.124520
2.053189
1.997556
1.968532
1.935724
1.912472
1.909355
1.921145
1.941238
1.975762
1.995806
2.013339
2.035012
2.043115
2.022987
2.057425
2.094786
2.111611
2.118453
2.119600
2.116053
2.094592
2.046572
1.967268
1.787732
1.495279
1.223756
1.079976
0.979022
0.748073
0.377720
0.088302
-0.044102
-0.205926
-0.412503
-0.636947
-0.807955
-0.921453
-0.992119
-1.030945
-1.045788
-1.046672
-1.044485
-1.047360
-1.061143
-1.088103
-1.120515
-1.163562
-1.222088
-1.275553
-1.318964
-1.340500
-1.342182
-1.320348
-1.267003
-1.188675
-1.079532
-0.954253
-0.828096
-0.740703
-0.768201
-0.924397
-1.011020
-1.227628
-1.728212
-1.824283
-1.773793
-1.672217
-1.620381
-1.609479
-1.634566
-1.687817
-1.751297
-1.820429
-1.887059
-1.941058
-2.006150
-2.309357
-2.885356
-3.641453
-4.509156
-5.401136
0.000000
0.999920
1.998886
2.996795
3.800835
3.989736
3.997721
3.999998
4.000000
4.000000
4.000000
4.000000
4.000000
4.000000
4.000000
4.000000
4.000000
4.000000
4.000000
4.000000
4.000000
4.000000
4.000000
4.000000
4.000000
4.000000
4.000000
4.000000
4.000000
4.000000
4.000000
4.000000
4.000000
4.000000
4.000000
4.000000
4.000000
4.000000
4.000000
4.000000
4.000000
4.000000
4.000000
4.000000
4.000000
4.000000
4.000000
4.000000
4.000000
4.000000
4.000000
4.000000
4.000000
4.000000
4.000000
4.000000
4.000000
4.000000
4.000000
4.000000
4.000000
4.000000
4.000000
4.000000
4.000000
4.000000
4.000000
4.000000
4.000000
3.999999
3.998345
3.948408
3.772100
3.530614
3.319983
3.175953
3.132225
3.116578
3.129868
3.122674
3.053188
2.998153
2.969119
2.935240
2.912468
2.909355
2.921101
2.941087
2.974963
2.995692
3.013248
3.034617
3.043160
3.023917
3.059821
3.095345
3.111612
3.118439
3.119598
3.116088
3.094599
3.046602
2.956359
2.751975
2.454863
2.204012
2.075093
1.961533
1.710341
1.355951
1.081112
0.943664
0.792489
0.586406
0.357815
0.189356
0.078180
0.007855
-0.030959
-0.045790
-0.046673
-0.044480
-0.047356
-0.061133
-0.088150
-0.120540
-0.163771
-0.222487
-0.275849
-0.319073
-0.340531
-0.342191
-0.320478
-0.267468
-0.189597
-0.080851
0.044089
0.170974
0.259319
0.231339
0.066591
0.013559
-0.426304
-0.905937
-0.828229
-0.779572
-0.674283
-0.620446
-0.609479
-0.634762
-0.689438
-0.753350
-0.822981
-0.889378
-0.942794
-1.048415
-1.533467
-2.309198
-3.207654
-4.162072
-5.124926
0.000000
0.999981
1.999944
2.995821
3.989736
4.792446
4.993652
4.996940
4.999997
4.999999
5.000000
5.000000
5.000000
5.000000
5.000000
5.000000
5.000000
5.000000
5.000000
5.000000
5.000000
5.000000
5.000000
5.000000
5.000000
5.000000
5.000000
5.000000
5.000000
5.000000
5.000000
5.000000
5.000000
5.000000
5.000000
5.000000
5.000000
5.000000
5.000000
5.000000
5.000000
5.000000
5.000000
5.000000
5.000000
5.000000
5.000000
5.000000
5.000000
5.000000
5.000000
5.000000
5.000000
5.000000
5.000000
5.000000
5.000000
5.000000
5.000000
5.000000
5.000000
5.000000
5.000000
5.000000
5.000000
5.000000
5.000000
5.000000
4.999999
4.999995
4.996756
4.937920
4.739251
4.491275
4.303348
4.171743
4.132308
4.119482
4.116461
4.089043
4.032477
3.998741
3.969699
3.934775
3.912464
3.909355
3.921060
3.940933
3.974195
3.995568
4.013160
4.034235
4.043190
4.025667
4.062026
4.095883
4.111612
4.118435
4.119596
4.116123
4.094584
4.044565
3.942122
3.704810
3.359945
3.061797
2.881758
3.029813
2.637063
2.313509
2.057317
1.930651
1.780350
1.570087
1.347472
1.184694
1.076244
1.007179
0.968986
0.954211
0.953346
0.955528
0.952603
0.938641
0.911568
0.878989
0.835258
0.776612
0.723439
0.680657
0.659483
0.657813
0.679416
0.731374
0.808310
0.915454
1.041489
1.167714
1.256527
0.977405
0.362728
-0.270337
-0.354755
-0.255133
0.171595
0.213095
0.324534
0.379459
0.390521
0.365216
0.310031
0.246252
0.176296
0.109881
0.055055
-0.256907
-1.049595
-2.008072
-2.994848
-3.990650
-4.987431
0.000000
1.000000
2.000000
2.999994
3.997721
4.993652
5.797034
5.991922
5.997330
5.999998
5.999999
6.000000
6.000000
6.000000
6.000000
6.000000
6.000000
6.000000
6.000000
6.000000
6.000000
6.000000
6.000000
6.000000
6.000000
6.000000
6.000000
6.000000
6.000000
6.000000
6.000000
6.000000
6.000000
6.000000
6.000000
6.000000
6.000000
6.000000
6.000000
6.000000
5.999630
5.998370
5.954456
5.998343
5.997970
5.999998
5.999999
6.000000
6.000000
6.000000
6.000000
6.000000
6.000000
6.000000
6.000000
6.000000
6.000000
6.000000
6.000000
6.000000
6.000000
6.000000
6.000000
6.000000
6.000000
6.000000
5.999999
5.998589
5.995053
5.839791
5.227736
4.723169
4.304574
3.976588
4.130950
4.133080
4.083521
4.033714
4.024148
4.072741
4.150784
4.198451
4.281519
4.439356
4.675083
4.875080
4.909473
4.939003
4.973480
4.995433
5.013072
5.033866
5.043212
5.027694
5.064075
5.096417
5.111612
5.118389
5.119174
5.112233
5.042082
4.668857
3.772722
3.093986
2.540844
2.137399
1.892398
2.082091
2.098752
2.151760
2.268185
2.493621
2.858175
2.509951
2.333121
2.178441
2.073174
2.006167
1.968916
1.954214
1.953369
1.955526
1.952554
1.938313
1.911171
1.878289
1.833496
1.774881
1.722066
1.680080
1.659483
1.657813
1.679170
1.729333
1.804184
1.907844
2.015349
1.558542
0.839140
0.146060
-0.483235
-1.155897
-1.351456
-1.121592
-0.459022
0.012248
0.228849
0.708471
1.002530
1.321460
1.316259
1.245357
1.175778
1.106450
0.929678
0.045379
-0.953051
-1.952055
-2.951350
-3.950693
-4.950052
0.000000
1.000000
2.000000
2.999999
3.999998
4.996940
5.736502
5.478104
5.251188
5.086118
5.208760
5.344268
5.511300
5.718696
5.958886
6.001067
6.091217
6.210594
6.355368
6.543571
6.781579
6.987812
6.997367
7.000000
6.999999
7.000000
7.000000
7.000000
7.000000
7.000000
7.000000
7.000000
7.000000
6.999998
6.999753
6.994297
6.923448
6.449857
5.779097
5.439434
5.231091
5.154473
5.148724
5.243685
5.179267
5.197580
5.157895
5.137369
5.163512
5.168747
5.177760
5.218466
5.320448
5.496156
5.752255
6.023806
6.336620
6.666263
6.970914
6.995548
6.999989
6.999998
7.000000
6.999990
6.999960
6.989066
6.996671
6.658752
5.674865
5.016946
4.414579
3.866233
3.383446
2.979979
3.164102
3.171391
3.078116
3.025961
3.023086
3.069719
3.150784
3.199604
3.288935
3.461155
3.725701
4.012944
4.174206
4.314589
4.532762
4.858430
5.292264
5.871529
6.079736
6.110659
6.075660
6.023724
6.002730
6.004272
6.082320
5.812424
4.859830
3.982524
3.140245
2.365460
1.696026
1.186783
0.894334
1.093868
1.098923
1.153641
1.275174
1.534177
1.946476
2.191048
2.280060
2.408887
2.741504
3.121482
2.924876
2.925882
2.953386
2.955532
2.952504
2.938009
2.910797
2.877576
2.831738
2.773170
2.720748
2.679563
2.659486
2.657814
2.679035
2.727413
2.801673
2.521532
1.798239
0.972467
0.124590
-0.572624
-1.232465
-1.942556
-2.313825
-1.969978
-1.394083
-0.990732
-0.734622
-0.280727
0.053033
0.553671
1.032230
1.566361
2.002994
1.975456
1.078135
0.080545
-0.919203
-1.918504
-2.917892
-3.917309
-4.916749
0.000000
1.000000
2.000000
3.000000
4.000000
4.973816
4.855738
4.512715
4.267543
4.086118
4.217069
4.354679
4.527771
4.741625
4.985340
5.206737
5.266145
5.281015
5.368363
5.548639
5.790550
6.091856
6.292876
6.462569
6.692549
7.008305
7.408037
7.897102
7.997005
7.999278
8.000000
7.999990
7.994380
7.999938
7.757477
7.003433
6.283508
5.403121
4.881029
4.484112
4.235161
4.145713
4.149008
4.249538
4.179266
4.199702
4.156132
4.135629
4.165805
4.166129
4.174539
4.219431
4.328086
4.522929
4.809077
5.091224
5.350074
5.645339
6.152586
6.667188
7.272437
7.869873
7.995988
7.998834
7.999689
7.704356
6.874045
6.014620
4.987562
4.269316
3.626248
3.045706
2.501215
1.982272
2.175463
2.171379
2.072210
2.017449
2.020435
2.066539
2.150784
2.200810
2.297743
2.486695
2.774657
3.050858
3.178934
3.327471
3.578892
3.952849
4.443721
5.035769
5.705233
6.646152
7.055497
7.023300
6.990921
7.002705
6.663282
5.391651
4.450077
3.522396
2.616842
1.747256
0.940079
0.247432
-0.105637
0.106595
0.090978
0.153621
0.282424
0.570924
1.024943
1.216414
1.297819
1.450037
1.874449
2.197718
2.413742
2.774862
3.134823
3.448912
3.840460
3.944757
3.910475
3.876804
3.829967
3.771469
3.719445
3.679018
3.659491
3.657817
3.678974
3.447116
2.659759
1.865427
1.112664
0.315397
-0.582196
-1.312003
-1.983643
-2.678329
-3.178442
-2.835464
-2.341553
-1.968386
-1.654365
-1.247378
-0.895572
-0.376117
0.144513
0.763539
1.440985
1.962487
1.110361
0.110794
-0.889245
-1.889188
-2.889158
-3.889111
-4.889049
0.000000
0.999996
1.999987
2.999974
3.999960
4.589818
3.947695
3.558146
3.285870
3.086118
3.226603
3.364320
3.545579
3.765117
4.011780
4.210216
4.271568
4.277231
4.373343
4.572393
4.829006
5.083209
5.279528
5.443091
5.680136
6.084964
6.525142
7.047785
7.645393
8.308390
8.892461
8.995272
8.833154
8.109375
7.235615
6.396997
5.330506
4.628984
4.026334
3.554078
3.246427
3.131166
3.149224
3.254946
3.179266
3.199575
3.152141
3.133361
3.165849
3.162467
3.171029
3.220462
3.336677
3.554717
3.866525
4.137465
4.385505
4.708304
5.152531
5.715152
6.552560
7.302129
8.106953
8.824409
8.377794
7.398896
6.457672
5.249053
4.384636
3.580670
2.863184
2.245904
1.678075
0.988603
1.187803
1.171384
1.065632
1.008164
1.017758
1.063201
1.150784
1.202070
1.308111
1.515553
1.831723
2.080130
2.180673
2.347357
2.645394
3.081517
3.642924
4.303686
5.037947
6.055385
6.897345
7.730125
7.949092
7.400145
6.417969
5.080251
4.118980
3.160040
2.208272
1.263596
0.316609
-0.606994
-1.003021
-0.894034
-0.913105
-0.846351
-0.717055
-0.426785
0.026806
0.226427
0.301886
0.466159
0.996657
1.218812
1.428041
1.886680
2.199963
2.512237
2.978631
3.601549
4.335204
4.861229
4.830897
4.769803
4.718293
4.678632
4.657269
4.564450
3.850521
2.984798
2.120712
1.248874
0.398241
-0.448632
-1.342214
-2.068773
-2.734255
-3.411067
-3.975260
-3.727992
-3.285070
-2.915879
-2.590274
-2.197191
-1.772890
-1.215798
-0.644854
0.018381
0.744151
1.532728
1.121992
0.121995
-0.878008
-1.878007
-2.878007
-3.878007
-4.878007
-0.000000
1.000000
1.999348
2.998663
3.997994
3.688549
3.080055
2.616734
2.305635
2.086118
2.237547
2.372550
2.565138
2.788283
3.038229
3.210774
3.273366
3.271842
3.380021
3.601386
3.871234
4.113984
4.289498
4.461788
4.729645
5.099563
5.566924
6.248297
6.903666
7.623401
8.396353
9.221419
8.640412
7.701262
6.780695
5.570180
4.723439
3.936129
3.237475
2.667080
2.273894
2.110461
2.149049
2.260909
2.179267
2.199410
2.147799
2.130921
2.165903
2.158105
2.167252
2.221240
2.345631
2.594600
2.930944
3.174854
3.423267
3.800301
4.326530
4.976069
5.717565
6.731880
7.599848
8.513829
8.100150
7.121367
6.149739
4.838178
3.902075
2.999045
2.159255
1.432663
0.899093
-0.035266
0.200837
0.171449
0.057747
-0.004070
0.014781
0.059595
0.150784
0.203361
0.319284
0.544507
0.897045
1.098651
1.181180
1.379113
1.742628
2.259491
2.905304
3.641966
4.440194
5.280462
6.425059
7.348463
8.006869
7.048960
6.107974
4.793827
3.841787
2.878488
1.908564
0.933152
-0.046667
-1.044589
-1.771343
-1.990941
-1.904745
-1.842843
-1.669556
-1.322434
-0.960829
-0.772642
-0.697719
-0.532202
0.002180
0.217027
0.445228
1.017335
1.241656
1.620287
2.213735
2.958436
3.796384
4.694380
5.516512
6.212029
6.154886
6.100321
5.151789
4.250018
3.362734
2.493274
1.625988
0.746139
-0.147521
-1.006553
-1.891060
-2.720565
-3.460793
-4.154341
-4.753617
-4.633773
-4.224419
-3.862027
-3.524311
-3.105400
-2.609546
-2.013120
-1.359372
-0.667020
0.092576
0.953947
1.103765
0.103632
-0.896345
-1.896152
-2.895992
-3.895831
-4.895673
-0.012256
0.982838
1.979647
2.978440
3.978476
3.028115
2.292421
1.706776
1.316885
1.086118
1.249864
1.378931
1.585816
1.809786
2.065107
2.211018
2.274690
2.265041
2.388944
2.636319
2.916402
3.137905
3.296782
3.489556
3.795952
4.213617
4.739352
5.362078
6.223364
7.005113
7.838533
8.724973
8.358320
7.383622
6.425633
5.140338
4.227422
3.354193
2.547978
1.853542
1.335630
1.079299
1.148106
1.267475
1.179272
1.199195
1.143070
1.128251
1.165969
1.152852
1.163286
1.221238
1.352746
1.642476
1.997331
2.198538
2.476647
2.946803
3.580702
4.329118
5.153964
6.258166
7.186729
8.134381
7.893287
6.903353
5.515402
4.537346
3.557840
2.576290
1.590801
0.609494
-0.369188
-1.107925
-0.798069
-0.828487
-0.941987
-1.004044
-0.985269
-0.940363
-0.849216
-0.796621
-0.680096
-0.422953
-0.029215
0.108081
0.181089
0.430817
0.880337
1.505454
2.246043
3.058493
3.919846
4.804420
6.028189
6.978375
7.622662
6.721506
5.391826
4.466499
3.541071
2.608922
1.664898
0.707110
-0.264051
-1.262019
-2.209873
-2.821220
-2.841964
-2.830302
-2.598487
-2.246035
-1.950172
-1.778770
-1.693048
-1.424997
-0.976115
-0.780675
-0.554241
0.020991
0.295335
0.841635
1.605062
2.479965
3.409130
4.366922
5.344208
6.584458
6.982866
6.216747
4.809205
3.860299
2.924945
2.013638
1.130356
0.232670
-0.693244
-1.541048
-2.395282
-3.271106
-4.096542
-4.861689
-5.522102
-5.550973
-5.165189
-4.810908
-4.444507
-3.976191
-3.410823
-2.763648
-2.050585
-1.293463
-0.492661
0.389477
1.053083
0.066096
-0.933350
-1.932392
-2.931550
-3.930731
-4.929933
-0.125754
0.874399
1.884331
2.890186
3.866196
2.538249
1.655254
0.884068
0.270351
0.086118
0.262303
0.383406
0.602197
0.827280
1.093388
1.211325
1.275818
1.256608
1.400806
1.676449
1.963375
2.153217
2.302939
2.531949
2.885622
3.365560
3.966559
4.666225
5.438665
6.468762
7.366246
8.285562
8.145939
7.152479
6.168873
4.820864
3.857957
2.911988
2.000449
1.159724
0.453966
0.037419
0.147055
0.274609
0.179240
0.198938
0.137902
0.125149
0.166053
0.146183
0.158696
0.221243
0.360558
0.691545
1.053985
1.206123
1.576183
2.186984
2.949016
3.797757
4.696742
5.627835
6.851748
7.694770
7.646701
6.696264
5.297903
4.329863
3.359681
2.383465
1.398163
0.409242
-0.586145
-1.542415
-1.910236
-1.828414
-1.950763
-2.002927
-1.985259
-1.943383
-1.849304
-1.797562
-1.645552
-1.340123
-1.024567
-0.891955
-0.817905
-0.483700
0.057371
0.821347
1.661631
2.551022
3.476883
4.403371
5.339529
6.543912
6.984339
6.422255
5.051765
4.103883
3.170515
2.250434
1.333772
0.386617
-0.592544
-1.551932
-2.519337
-3.383638
-3.839386
-3.803309
-3.524054
-3.192981
-2.942310
-2.785072
-2.654295
-2.316723
-1.962391
-1.768162
-1.457303
-0.935316
-0.528727
0.255451
1.206428
2.187785
3.180222
4.171039
5.150442
6.304664
6.665603
5.561201
4.563431
3.577904
2.594638
1.612616
0.628909
-0.359401
-1.325378
-2.140955
-2.956650
-3.786613
-4.631366
-5.433311
-6.137838
-6.321989
-6.102312
-5.751883
-5.335835
-4.797859
-4.165270
-3.461472
-2.712276
-1.936943
-1.125081
-0.213968
0.773985
0.059956
-0.939557
-1.936604
-2.932729
-3.927540
-4.921118
-0.166892
0.832898
1.824300
2.761926
3.637264
2.274962
1.270482
0.282715
-0.614693
-0.900541
-0.734007
-0.616669
-0.398399
-0.169881
0.124141
0.211656
0.276462
0.246274
0.415454
0.715868
1.010833
1.160183
1.308781
1.593063
2.009735
2.577401
3.272993
4.056819
4.898777
6.027808
6.972483
7.783475
7.875459
6.986547
5.591500
4.601282
3.611725
2.621850
1.630873
0.637707
-0.298788
-0.846836
-0.965908
-0.723206
-0.821536
-0.800903
-0.862033
-0.874852
-0.833949
-0.853733
-0.841306
-0.778748
-0.639442
-0.307175
0.056814
0.200876
0.763647
1.561869
2.454223
3.393118
4.339963
5.298143
6.478196
6.954810
7.101643
6.484723
5.058636
4.086285
3.123129
2.169806
1.220657
0.250666
-0.750101
-1.738260
-2.576511
-2.921444
-2.955614
-3.002570
-2.985252
-2.946036
-2.849710
-2.790948
-2.590483
-2.278635
-2.021901
-1.908127
-1.771778
-1.255396
-0.643600
0.186539
1.145301
2.131086
3.128102
4.107248
4.974934
5.444522
6.033238
6.081713
4.792380
3.810422
2.841372
1.881193
0.934370
-0.025412
-1.010758
-1.933851
-2.862577
-3.795077
-4.574535
-4.830482
-4.457218
-4.156080
-3.936376
-3.785717
-3.590658
-3.246725
-2.961930
-2.745740
-2.301898
-1.664667
-0.873582
0.116273
1.117097
2.118373
3.119192
4.096654
4.880302
5.194966
5.457676
5.376322
4.401900
3.402037
2.402682
1.404269
0.408561
-0.585613
-1.574972
-2.385791
-3.120718
-3.795087
-4.427572
-5.004799
-5.554117
-6.159568
-6.676759
-6.387073
-6.179381
-5.563239
-4.865100
-4.107449
-3.304969
-2.452783
-1.544700
-0.605899
0.371335
0.141047
-0.853787
-1.837738
-2.819919
-3.800567
-4.780330
-0.204440
0.776091
1.554618
2.343377
3.166422
2.290049
1.296940
0.326714
-0.482315
-0.938568
-1.479212
-1.521490
-1.348430
-1.135904
-0.870711
-0.788337
-0.722373
-0.753749
-0.584678
-0.268481
0.057410
0.161293
0.314880
0.661061
1.190678
1.882927
2.683458
3.546121
4.451764
5.391810
6.561891
7.011157
7.177583
6.810584
5.456092
4.467660
3.476392
2.485841
1.495453
0.503039
-0.492157
-1.385342
-1.883752
-1.750359
-1.819595
-1.806869
-1.862906
-1.874851
-1.843102
-1.858176
-1.841311
-1.773087
-1.609156
-1.295562
-0.991962
-0.612205
0.113334
1.100046
2.100034
3.100049
4.057630
4.944652
5.491198
5.702498
6.174426
6.188618
4.869984
3.871963
2.878860
1.885727
0.893000
-0.100454
-1.091879
-2.032519
-2.962052
-3.694573
-3.849808
-3.835537
-3.891332
-3.920533
-3.848286
-3.772352
-3.533402
-3.241952
-3.027957
-2.869246
-2.400318
-1.562246
-0.633250
0.360461
1.348017
2.327451
3.315836
3.989304
4.256331
4.481152
4.724785
5.029379
4.630436
3.627527
2.634816
1.642262
0.649113
-0.346043
-1.332458
-2.274925
-3.195141
-4.033671
-4.647637
-5.095109
-5.390015
-5.130195
-4.931651
-4.776460
-4.544853
-4.226702
-3.832994
-3.176383
-2.234986
-1.267274
-0.297043
0.685877
1.599611
2.516007
3.460462
4.009108
4.051519
4.218160
4.484551
4.778701
4.624076
3.643815
2.666211
1.688800
0.714043
-0.240948
-0.984299
-1.690585
-2.350044
-2.976462
-3.586090
-4.154377
-4.700724
-5.233182
-5.738221
-6.296088
-6.597003
-6.157005
-5.379602
-4.520095
-3.630825
-2.698305
-1.730109
-0.751645
0.247044
0.325945
-0.665962
-1.635975
-2.607487
-3.580692
-4.555596
-0.970849
0.011287
0.830002
1.701813
2.610485
2.652304
1.760894
0.931644
0.245717
-0.286381
-0.880586
-1.262236
-1.673632
-1.957322
-1.867968
-1.794492
-1.740404
-1.742707
-1.534814
-1.203008
-0.935629
-0.838989
-0.685111
-0.338428
0.466773
1.302576
2.198690
3.127667
4.087332
5.033404
5.627125
6.030227
6.184360
6.329569
5.319997
4.338843
3.339328
2.341495
1.347791
0.366946
-0.534129
-1.254273
-1.859211
-2.117585
-2.367622
-2.689270
-2.872582
-2.858942
-2.849973
-2.837553
-2.804967
-2.761625
-2.599892
-2.200177
-1.581294
-0.716300
0.280226
1.272957
2.260967
3.252026
4.056192
4.348788
4.528726
4.718050
4.916585
5.188144
4.777931
3.748655
2.748651
1.748651
0.748531
-0.251780
-1.220419
-1.954123
-2.585455
-3.075788
-3.419447
-3.703348
-3.985114
-4.286112
-4.609156
-4.705039
-4.469725
-4.229181
-3.843559
-3.192177
-2.226625
-1.242395
-0.256346
0.738383
1.692399
2.646949
3.251662
3.120133
3.266083
3.502186
3.767343
4.107874
4.370859
3.504204
2.504401
1.504984
0.506716
-0.479563
-1.378627
-2.179204
-2.863491
-3.424632
-3.850804
-4.249474
-4.637538
-5.012534
-5.373337
-5.710508
-5.414836
-4.726384
-3.808995
-2.874326
-1.940480
-0.982056
0.012592
0.985010
1.940038
2.886944
3.222641
2.990251
3.052638
3.240485
3.534550
3.831538
4.154742
3.926295
2.978578
2.065142
1.199115
0.409291
-0.296895
-0.924804
-1.545236
-2.170678
-2.763626
-3.310089
-3.853757
-4.374365
-4.864114
-5.363643
-6.024287
-5.611688
-4.832729
-4.029351
-3.208707
-2.355018
-1.449293
-0.512173
0.462395
0.606217
-0.385993
-1.363394
-2.344595
-3.328365
-4.314169
-1.564736
-0.699548
0.208389
1.186216
2.181902
2.994017
2.347222
1.661544
1.124280
0.682210
0.094601
-0.334354
-0.888995
-1.193369
-1.541861
-1.884746
-2.043759
-2.073550
-2.125034
-2.122677
-1.892270
-1.773558
-1.615981
-1.171752
-0.208218
0.793877
1.793691
2.790577
3.785511
4.452680
4.693483
4.849086
4.984979
5.216345
5.407236
4.579417
3.606609
2.663780
1.736625
0.849393
0.034498
-0.636652
-1.005131
-1.202815
-1.547295
-1.899095
-2.118257
-2.362018
-2.669095
-2.913883
-2.985389
-3.080011
-2.973782
-2.298353
-1.330460
-0.337958
0.660406
1.618885
2.568782
3.310730
3.253452
3.355490
3.541459
3.738788
3.945670
4.240846
4.547415
3.962539
2.973012
2.013273
1.059462
0.127423
-0.687366
-1.242293
-1.758459
-2.136907
-2.471475
-2.810861
-3.149407
-3.495194
-3.842055
-4.211746
-4.500403
-4.542322
-3.998973
-3.026986
-2.044595
-1.064299
-0.070336
0.923601
1.903660
2.519186
2.237424
2.143601
2.276579
2.535399
2.817412
3.188353
3.607206
3.697635
2.716026
1.747655
0.775955
-0.172205
-0.895005
-1.512342
-2.070734
-2.521086
-2.916868
-3.320472
-3.714742
-4.131852
-4.554350
-4.983505
-5.220415
-4.487485
-3.519066
-2.562288
-1.625720
-0.710286
0.279368
1.266255
2.218838
2.509862
2.150404
1.989741
2.053192
2.270463
2.591790
2.883803
3.220150
3.591756
3.424095
2.593533
1.826525
1.132172
0.500026
-0.140969
-0.740532
-1.373848
-1.919270
-2.463187
-3.006372
-3.503918
-3.988117
-4.509179
-5.050668
-4.971130
-4.217463
-3.428200
-2.634757
-1.838434
-1.019144
-0.101911
0.869811
0.842330
-0.139036
-1.137363
-2.143238
-3.146234
-4.147834
-1.686814
-0.757050
0.207990
1.211200
2.213756
3.218376
3.063818
2.487726
2.023132
1.565484
1.052549
0.652386
0.095421
-0.217240
-0.640160
-0.994209
-1.116063
-1.216748
-1.370104
-1.474762
-1.360081
-1.342697
-1.315490
-0.856853
-0.078189
0.901709
1.919384
2.869236
3.336993
3.529583
3.711257
3.859230
4.002411
4.260192
4.613222
4.783690
4.003575
3.096934
2.251310
1.475464
0.808244
0.284704
-0.012422
-0.214023
-0.631989
-0.965648
-1.120996
-1.408852
-1.777678
-2.023034
-2.058449
-2.224905
-2.267943
-2.064318
-1.258653
-0.245142
0.754802
1.749867
2.561540
2.395385
2.266795
2.363367
2.561310
2.762244
2.978388
3.302782
3.656902
3.901884
3.317580
2.384824
1.508202
0.704000
0.041570
-0.404419
-0.834659
-1.176181
-1.510616
-1.881172
-2.204255
-2.552992
-2.919390
-3.299596
-3.658044
-3.967637
-3.695353
-2.838972
-1.846863
-0.861593
0.134964
1.139589
1.926196
1.548492
1.239670
1.143588
1.282900
1.576802
1.875350
2.284447
2.700665
3.093246
3.104399
2.140485
1.272926
0.489657
-0.138339
-0.676803
-1.177656
-1.578139
-1.991425
-2.392935
-2.798963
-3.223212
-3.647781
-4.083831
-4.488658
-4.194251
-3.247605
-2.248131
-1.261845
-0.287275
0.705762
1.660094
2.037986
1.472100
1.168163
0.989320
1.053760
1.305560
1.651271
1.933408
2.292703
2.664286
3.035015
3.227752
2.525466
1.873808
1.256999
0.645258
0.068445
-0.540088
-1.033679
-1.626166
-2.149481
-2.617718
-3.122752
-3.673547
-4.214132
-4.301387
-3.585899
-2.812911
-2.024199
-1.219070
-0.396029
0.521982
1.476448
0.898136
-0.109878
-1.108706
-2.111985
-3.113245
-4.113467
-1.381218
-0.389621
0.556648
1.493050
2.447880
3.421271
3.863157
3.358488
2.904726
2.434376
1.983112
1.550372
1.064533
0.776047
0.369705
0.003466
-0.107470
-0.220374
-0.384436
-0.490141
-0.380277
-0.396080
-0.420572
-0.122250
0.521173
1.344124
2.211480
2.248336
2.383837
2.540174
2.722795
2.870622
3.023960
3.316033
3.681511
3.951165
4.165944
3.638699
2.880077
2.206936
1.649697
1.229272
0.978180
0.783813
0.361811
0.027315
-0.122152
-0.454730
-0.864030
-1.031185
-1.060508
-1.240388
-1.329997
-1.504727
-1.031540
-0.248291
0.731401
1.744770
1.745255
1.400709
1.266793
1.366966
1.583853
1.786292
2.017343
2.369894
2.714057
2.994556
3.350436
2.876817
2.099238
1.448048
0.960047
0.566660
0.151637
-0.183185
-0.548019
-0.954579
-1.240354
-1.615218
-2.006201
-2.359989
-2.715780
-3.063280
-3.219084
-2.583196
-1.629997
-0.636787
0.364345
1.355100
1.209331
0.600100
0.249914
0.143541
0.288752
0.616790
0.938508
1.385149
1.780368
2.175052
2.578354
2.665816
1.913544
1.255655
0.713752
0.235249
-0.189054
-0.631227
-1.066505
-1.457351
-1.891060
-2.309662
-2.744605
-3.179787
-3.600587
-3.789819
-3.052720
-2.029632
-0.991435
0.007848
0.986314
1.798575
1.092730
0.550774
0.186546
-0.011202
0.054260
0.336904
0.699308
0.979891
1.367636
1.727470
2.112734
2.523846
3.008962
2.632951
2.058863
1.530116
1.058617
0.433835
-0.114365
-0.781366
-1.253570
-1.727692
-2.285029
-2.849428
-3.363664
-3.599026
-2.930586
-2.174826
-1.408517
-0.632038
0.165810
1.055959
1.795244
0.906501
-0.103948
-1.103078
-2.101968
-3.100549
-4.099096
-0.828922
0.171190
1.083066
1.993620
2.907773
3.867117
4.634208
4.242013
3.782912
3.322846
2.887648
2.436953
2.028334
1.725647
1.321059
0.990713
0.892462
0.779384
0.614676
0.509406
0.620185
0.602116
0.556687
0.823610
1.312392
1.800811
1.558971
1.287117
1.395352
1.551409
1.734669
1.882208
2.051504
2.384657
2.741642
2.977041
3.257901
3.616216
3.639920
3.014581
2.533495
2.177776
1.963374
1.732564
1.327023
1.017370
0.855435
0.533092
0.128566
-0.033214
-0.061786
-0.258606