# vtk DataFile Version 3.0
Para0
ASCII
DATASET RECTILINEAR_GRID
DIMENSIONS 81 41 1
X_COORDINATES 81 int
0 1 2 3 4 5 6 7 8 9 10 11 12 13 14 15 16 17 18 19 20 21 22 23 24 25 26 27 28 29 30 31 32 33 34 35 36 37 38 39 40 41 42 43 44 45 46 47 48 49 50 51 52 53 54 55 56 57 58 59 60 61 62 63 64 65 66 67 68 69 70 71 72 73 74 75 76 77 78 79 80 
Y_COORDINATES 41 int
0 1 2 3 4 5 6 7 8 9 10 11 12 13 14 15 16 17 18 19 20 21 22 23 24 25 26 27 28 29 30 31 32 33 34 35 36 37 38 39 40 
Z_COORDINATES 1 int
0

POINT_DATA 3321
SCALARS distance float 1
LOOKUP_TABLE default
0.000000
0.000000
0.000000
0.000000
0.000000
0.000000
0.000000
0.000000
0.000000
0.000000
0.000000
0.000000
0.000000
0.000000
0.000000
0.000000
0.000000
0.000000
-0.044393
-0.158061
-0.285953
-0.434590
-0.585815
-0.767635
-0.886706
-0.899702
-0.958638
-1.014491
-1.011095
-1.035968
-1.162205
-1.329996
-1.508765
-1.674800
-1.831096
-1.944477
-1.960600
-1.975175
-2.056774
-2.203369
-2.362985
-2.523762
-2.671910
-2.821510
-2.968896
-3.038001
-3.058683
-3.175462
-3.305801
-3.427947
-3.580824
-3.726593
-3.836401
-3.937822
-4.049001
-4.139851
-4.195648
-4.263261
-4.366118
-4.482700
-4.583365
-4.668462
-4.767211
-4.877300
-4.984088
-5.079819
-5.164900
-5.240448
-5.308643
-5.373018
-5.430546
-5.469471
-5.603908
-5.874743
-6.295337
-6.776957
-6.598688
-7.342153
-8.057548
-8.657007
-9.173167
0.000000
0.707107
0.996724
0.987283
0.999920
0.999981
1.000000
1.000000
1.000000
1.000000
1.000000
1.000000
1.000000
1.000000
1.000000
1.000000
1.000000
0.999824
0.954196
0.841923
0.714067
0.565417
0.414186
0.232366
0.113297
0.100298
0.041361
-0.014568
-0.011111
-0.037527
-0.165796
-0.339708
-0.524502
-0.686332
-0.846702
-0.946237
-0.942948
-0.957578
-1.048442
-1.210325
-1.370108
-1.536928
-1.680570
-1.835999
-1.982673
-2.034730
-2.052134
-2.182328
-2.309916
-2.431364
-2.590623
-2.734352
-2.840682
-2.943331
-3.058008
-3.143902
-3.194529
-3.264474
-3.370938
-3.490204
-3.587838
-3.670663
-3.771411
-3.882932
-3.989315
-4.083873
-4.168130
-4.242989
-4.310794
-4.374936
-4.432033
-4.473031
-4.648233
-4.999099
-5.520712
-6.180601
-6.611115
-6.679463
-7.298509
-7.804190
-8.309511
0.000000
0.996724
1.800370
1.976733
1.998886
1.999944
2.000000
2.000000
2.000000
2.000000
2.000000
2.000000
2.000000
2.000000
2.000000
2.000000
2.000000
1.999606
1.949616
1.836189
1.706837
1.558976
1.410812
1.237725
1.124457
1.112405
1.048878
0.989826
0.995661
0.958804
0.833925
0.659636
0.473231
0.312268
0.148687
0.047385
0.054636
0.042247
-0.047850
-0.218326
-0.377261
-0.550675
-0.688774
-0.851208
-0.995704
-1.029516
-1.045853
-1.189659
-1.311470
-1.434792
-1.601268
-1.741872
-1.844635
-1.949020
-2.066970
-2.147231
-2.193222
-2.265973
-2.376076
-2.497777
-2.591954
-2.672755
-2.775773
-2.888674
-2.994501
-3.087848
-3.171317
-3.245503
-3.312931
-3.376834
-3.433521
-3.477246
-3.696558
-4.133273
-4.762602
-5.510945
-6.248469
-6.581916
-6.447003
-6.927155
-7.479041
0.000000
0.987283
1.976733
2.777954
2.996795
2.995821
2.999994
2.999999
3.000000
3.000000
3.000000
3.000000
3.000000
3.000000
3.000000
3.000000
2.999999
2.999317
2.944923
2.830027
2.699185
2.551837
2.401508
2.235946
2.130744
2.119683
2.055071
1.994279
2.000776
1.954913
1.824056
1.648156
1.465348
1.310298
1.160406
1.061752
1.065302
1.040040
0.943099
0.780966
0.622437
0.446713
0.310142
0.144559
-0.001857
-0.031098
-0.046771
-0.196102
-0.315576
-0.438495
-0.613104
-0.748983
-0.848331
-0.955419
-1.076351
-1.149635
-1.191454
-1.267719
-1.381470
-1.505131
-1.594806
-1.674355
-1.780386
-1.894587
-1.999582
-2.091690
-2.174430
-2.247945
-2.315023
-2.378697
-2.435015
-2.485462
-2.777909
-3.349724
-4.107215
-4.867895
-5.535388
-6.074817
-6.315852
-6.083116
-6.713703
0.000000
0.999920
1.998886
2.996795
3.800835
3.989736
3.997721
3.999998
4.000000
4.000000
4.000000
4.000000
4.000000
4.000000
4.000000
4.000000
3.999998
3.998937
3.940115
3.823723
3.691583
3.544578
3.391569
3.232898
3.136240
3.125657
3.060187
2.998954
3.004677
2.950662
2.813498
2.635119
2.457425
2.306931
2.161726
2.069034
2.070921
2.036125
1.934236
1.773873
1.612536
1.440300
1.304249
1.142186
1.006545
0.973992
0.948472
0.809458
0.684058
0.561067
0.384474
0.249927
0.151331
0.042869
-0.081086
-0.152881
-0.192135
-0.268410
-0.385527
-0.510493
-0.597438
-0.675879
-0.785313
-0.900659
-1.004578
-1.095484
-1.177580
-1.250454
-1.317256
-1.380754
-1.436850
-1.514120
-1.959261
-2.716436
-3.507111
-4.195805
-4.738510
-5.189830
-5.674761
-6.031037
-6.035771
0.000000
1.000595
2.001103
3.001381
3.995684
4.794949
4.993821
4.997008
4.999997
4.999999
5.000000
5.000000
5.000000
5.000000
5.000000
5.000000
4.999996
4.998449
4.935195
4.817317
4.684020
4.537143
4.381760
4.229842
4.141084
4.130677
4.064577
4.003653
4.007546
3.946026
3.802621
3.622686
3.450482
3.303070
3.159825
3.074914
3.074807
3.031636
2.925591
2.766342
2.601099
2.433318
2.294714
2.135485
2.011055
1.976858
1.943064
1.807890
1.677309
1.550588
1.378382
1.246888
1.148426
1.040742
0.920567
0.848988
0.806187
0.730389
0.613198
0.489732
0.402076
0.322029
0.213340
0.097418
-0.006166
-0.096682
-0.178667
-0.251350
-0.318425
-0.381965
-0.439434
-0.613483
-1.362375
-2.173443
-2.869959
-3.432612
-3.858502
-4.298376
-4.897287
-5.639431
-6.341734
0.000000
1.000055
1.995227
2.986885
3.953817
4.854532
5.725052
5.985109
5.996123
5.999992
5.999999
6.000000
6.000000
6.000000
6.000000
6.000000
5.999992
5.997840
5.930168
5.810817
5.676481
5.529520
5.372103
5.227102
5.145322
5.134949
5.068406
5.008225
5.009529
4.941018
4.791556
4.611192
4.444390
4.298342
4.157302
4.079936
4.077413
4.026723
3.917045
3.758605
3.590041
3.426138
3.284390
3.128579
3.014221
2.979081
2.937970
2.804599
2.668860
2.537140
2.371627
2.243523
2.144444
2.035258
1.919277
1.849080
1.803723
1.725119
1.606805
1.486864
1.399353
1.316742
1.209530
1.094181
0.991416
0.901432
0.819833
0.747618
0.680945
0.616158
0.521366
-0.021350
-0.803717
-1.544296
-2.124055
-2.572026
-2.949108
-3.495483
-4.253846
-5.108323
-5.973867
-0.115345
0.884655
1.871986
2.822741
3.666900
4.318115
4.839396
6.000509
6.739639
6.999846
6.993463
6.999986
6.999996
7.000000
7.000000
7.000000
7.000000
6.999368
6.997788
6.968156
6.931602
6.876773
6.748860
6.567828
6.390056
6.233161
6.112128
6.038473
6.009051
5.935734
5.780411
5.600653
5.438810
5.292540
5.155009
5.084154
5.079956
5.021403
4.908573
4.750649
4.579620
4.418789
4.273811
4.122305
4.016914
3.980753
3.932949
3.800032
3.659302
3.524036
3.365033
3.239955
3.140185
3.029088
2.916885
2.848362
2.800975
2.719643
2.600344
2.483332
2.395812
2.311276
2.203950
2.089702
1.988003
1.898633
1.817656
1.745787
1.679620
1.605270
1.331621
0.586357
-0.204471
-0.860483
-1.322145
-1.646906
-2.115551
-2.891767
-3.797427
-4.740484
-5.687646
-0.256590
0.743331
1.678480
2.448638
2.956369
3.405025
3.946391
4.581135
6.042756
6.871752
7.699418
7.999540
7.991112
7.999974
7.999994
8.000000
8.000000
7.999293
7.997446
7.967824
7.931388
7.870693
7.731858
7.550145
7.375081
7.223087
7.107749
7.037817
7.008937
6.993938
6.997906
6.948952
6.868914
6.742707
6.550693
6.359216
6.199410
6.078671
6.004424
5.742593
5.569713
5.411214
5.263396
5.116917
5.019394
4.981823
4.927808
4.794471
4.648945
4.511787
4.358770
4.236451
4.135671
4.023007
3.914251
3.847344
3.798030
3.714048
3.594161
3.479767
3.392094
3.305780
3.198019
3.084922
2.984304
2.895565
2.815379
2.743999
2.675713
2.550455
1.973154
1.239492
0.524808
-0.087058
-0.472806
-0.783826
-1.613895
-2.562051
-3.543187
-4.528505
-5.512337
-0.109381
0.882912
1.260112
1.604870
2.001903
2.519420
3.158643
3.896690
4.699193
6.313642
7.023439
7.601654
8.149512
8.686258
8.988487
8.993021
8.999978
8.999224
8.997106
8.967570
8.931053
8.862857
8.714488
8.532820
8.360902
8.213913
8.103832
8.037188
8.008826
7.993938
7.997361
7.947320
7.863437
7.723631
7.529540
7.343512
7.189424
7.074197
7.003910
6.975579
6.952986
6.888914
6.802087
6.668575
6.543978
6.441420
6.336369
6.205101
6.073201
5.499608
5.352841
5.232947
5.130904
5.016858
4.911621
4.846168
4.794980
4.708334
4.588217
4.476161
4.388207
4.300223
4.192075
4.080133
3.980566
3.892470
3.812954
3.742135
3.662604
3.349213
2.640977
1.946102
1.352945
0.835864
0.359698
-0.446155
-1.433470
-2.426206
-3.416101
-4.398066
-5.369789
-0.519093
-0.129830
0.142996
0.597928
1.121107
1.749347
2.487655
3.299318
4.119646
4.769207
6.225894
6.749180
7.317367
7.816687
8.099004
8.333174
8.628560
8.998702
9.434697
9.890682
9.930470
9.853288
9.696910
9.515958
9.347546
9.205541
9.100301
9.036583
9.008716
8.993938
8.996840
8.945631
8.855851
8.703668
8.509467
8.328827
8.180287
8.070222
8.003443
7.975574
7.951628
7.886484
7.792523
7.659703
7.538945
7.436891
7.327587
7.195041
7.065550
6.957789
6.878971
6.832990
6.795107
6.707908
6.599841
6.509398
6.441988
6.381799
6.300974
6.206383
6.118334
6.041269
5.186058
5.075403
4.976838
4.889472
4.810613
4.737572
4.606101
4.050470
3.371780
2.741147
2.193469
1.591091
0.668854
-0.326010
-1.318313
-2.284695
-3.239443
-4.169280
-5.086965
-1.364792
-1.121707
-0.771070
-0.261013
0.341022
1.079834
1.902893
2.752856
3.444911
3.909555
4.393179
4.938648
6.513564
6.902478
7.113820
7.362862
7.691083
8.093791
8.560864
9.083648
9.655700
10.272332
10.664420
10.499643
10.335006
10.197882
10.097096
10.036002
10.008607
9.993938
9.996362
9.943654
9.846019
9.683321
9.490448
9.315110
9.171923
9.066665
9.003015
8.975566
8.950328
8.883271
8.782919
8.651523
8.534135
8.431804
8.318447
8.185292
8.058232
7.953433
7.877793
7.832877
7.791909
7.701145
7.594795
7.506956
7.440703
7.378945
7.296186
7.202063
7.115147
7.038714
6.967869
6.898569
6.835363
6.778251
6.726051
6.670712
6.386022
4.737862
4.166458
3.549065
2.806348
1.873907
0.897735
-0.084361
-1.069739
-1.994560
-2.891817
-3.752597
-4.602668
-2.358094
-2.052115
-1.595202
-1.036839
-0.366939
0.488642
1.388931
2.114443
2.551927
3.004061
3.544210
4.157941
4.776952
4.974828
6.127822
6.407289
6.769392
7.205452
7.705846
8.262288
8.868765
9.520723
10.213951
10.944062
11.317929
11.190855
11.094169
11.035442
11.008500
10.993938
10.995928
10.941110
10.834012
10.662972
10.472450
10.302304
10.164256
10.063463
10.002623
9.975555
9.949002
9.879249
9.773437
9.643966
9.529427
9.426136
9.309065
9.175850
9.051264
8.949452
8.876760
8.832709
8.788239
8.694543
8.590071
8.504677
8.439338
8.375863
8.291420
8.197863
8.112007
8.036228
7.966636
7.897825
7.756705
7.323428
6.962694
6.672078
6.456555
6.271043
4.860287
4.088272
3.146963
2.190194
1.247099
0.323053
-0.617888
-1.551913
-2.394014
-3.197264
-3.986029
-3.380487
-2.935523
-2.396783
-1.665704
-0.882833
-0.004020
0.777349
1.209533
1.630892
2.141686
2.750532
3.402697
3.940562
3.997684
4.245207
4.561642
4.957906
6.336474
6.873701
7.467693
8.112910
8.804439
9.537034
10.305191
11.103592
11.911014
12.086595
12.034902
12.008395
11.993938
11.995523
11.937686
11.820072
11.642901
11.455433
11.290352
11.157213
11.060563
11.002266
10.975542
10.947567
10.874448
10.764197
10.636951
10.524711
10.419892
10.299541
10.166719
10.044650
9.945812
9.875856
9.832453
9.784141
9.688135
9.585649
9.502534
9.437862
9.372588
9.287423
9.196035
9.091700
8.707052
8.030389
7.417855
6.877965
6.414219
6.024255
4.791776
4.520450
4.330901
4.236856
4.229615
3.521660
2.594236
1.714733
0.866033
-0.022604
-0.972728
-1.808150
-2.566923
-3.302334
-4.339620
-3.688728
-2.994557
-2.164690
-1.263421
-0.418144
-0.090437
0.278697
0.746871
1.344340
2.004384
2.650693
2.996940
3.013108
3.279504
3.635812
4.073783
4.586598
6.070047
6.706747
7.396106
8.131772
8.906855
9.714728
10.549562
11.406512
12.281671
12.930812
12.989423
12.993765
12.995111
12.933058
12.804549
12.623302
12.439354
12.279195
12.150730
12.057925
12.001941
11.975526
11.945941
11.868944
11.755276
11.630391
11.519889
11.413099
11.289957
11.157902
11.038388
10.942482
10.875066
10.832073
10.779671
10.681938
10.581485
10.500551
10.437224
10.370607
10.212597
9.635300
8.816272
8.034406
7.301059
6.629711
6.033952
4.658438
4.217644
3.847319
3.546451
3.333571
3.230630
3.282647
3.468874
3.086577
2.247163
1.412987
0.568642
-0.333110
-1.182844
-1.878217
-2.566032
-5.104720
-4.295167
-3.456579
-2.587633
-1.752316
-1.158898
-0.996926
-0.622209
-0.132549
0.595588
1.255316
1.864134
2.004018
2.015327
2.318972
2.727883
3.214933
3.771778
4.394660
5.077446
6.728923
7.512661
8.332071
9.179947
10.050536
10.939367
11.842994
12.758745
13.644406
13.991673
13.994633
13.926945
13.787837
13.604299
13.424166
13.268776
13.144747
13.055515
13.001649
12.975506
12.944043
12.862845
12.746722
12.624199
12.514879
12.405802
12.280384
12.149403
12.032472
11.939435
11.874371
11.831525
11.774904
11.676107
11.577801
11.495142
11.412997
10.928289
10.006126
9.122279
8.260192
7.427437
6.634891
5.049395
4.383602
3.803714
3.318047
2.914617
2.579150
2.337892
2.230688
2.284009
2.443405
2.692991
2.766716
2.037698
1.265930
0.465908
-0.404677
-1.106647
-1.875861
-5.640067
-4.790824
-3.932182
-3.120326
-2.473712
-2.099954
-1.880075
-1.512409
-1.005163
-0.279817
0.427664
1.083661
0.994076
1.013155
1.377792
1.848904
2.387050
2.994965
3.674135
4.415152
6.124212
6.957934
7.821476
8.708004
9.612446
10.531033
11.460937
12.400010
13.346598
14.328778
14.933879
14.919155
14.770321
14.585972
14.409824
14.259037
14.139214
14.053306
14.001390
13.975480
13.941802
13.856276
13.738552
13.618291
13.509612
13.398061
13.270878
13.141225
13.026891
12.936648
12.873748
12.830738
12.770304
12.674152
12.575561
12.268221
11.456368
10.519245
9.591554
8.675752
7.775442
6.896142
6.046516
4.397597
3.654672
2.996923
2.446624
1.996961
1.621903
1.342243
1.230496
1.284709
1.463181
1.744106
2.081251
2.484225
1.932106
1.133380
0.334976
-0.404682
-1.306762
-6.094453
-5.302601
-4.514851
-3.838794
-3.358171
-3.082260
-2.807555
-2.411845
-1.854691
-1.151394
-0.407991
0.238560
0.025980
0.066634
0.464670
0.996275
1.596522
2.270680
3.019601
3.825677
4.674229
6.478082
7.383344
8.305620
9.240882
10.186213
11.139475
12.099074
13.063810
14.032760
15.005211
15.759354
15.752347
15.568362
15.396280
15.249925
15.134084
15.051274
15.001164
14.975440
14.939158
14.849365
14.730767
14.612582
14.504036
14.389943
14.261487
14.133367
14.021631
13.934089
13.873181
13.830224
13.766928
13.631987
13.078564
12.113027
11.149968
10.192245
9.241066
8.298050
7.365477
6.446764
4.703814
3.835416
3.013616
2.262480
1.617303
1.094797
0.672588
0.346591
0.230276
0.285274
0.484482
0.798834
1.141434
1.587589
2.287462
1.766667
0.977671
0.169894
-0.773818
-6.559101
-5.915317
-5.227717
-4.678969
-4.308708
-4.054397
-3.734071
-3.237618
-2.590398
-1.847094
-1.041544
-0.285911
-0.251407
-0.338420
-0.345189
0.152702
0.846934
1.618370
2.448484
3.321417
4.225351
6.081882
7.024606
7.978371
8.940322
9.908469
10.881405
11.858113
12.837847
13.820046
14.804280
15.790216
16.570272
16.551486
16.383486
16.241391
16.129317
16.049402
16.000972
15.975379
15.936069
15.842232
15.723347
15.606992
15.498112
15.381518
15.252249
15.125831
15.016685
14.931709
14.872277
14.829301
14.607758
13.848208
12.862509
11.881370
10.902898
9.927698
8.956567
7.990572
7.031171
6.080425
4.292425
3.372442
2.480892
1.632837
0.856442
0.212419
-0.270329
-0.647988
-0.769841
-0.714871
-0.503896
-0.163037
0.218363
0.751573
1.454455
2.367969
1.580316
0.788704
0.000000
-6.330221
-6.416918
-5.997615
-5.543677
-5.231014
-4.959308
-4.553462
-3.963786
-3.218064
-2.466586
-1.655367
-0.745148
-0.001640
-0.621634
-0.838326
-0.663958
0.163898
1.053814
1.968826
2.906516
3.862185
4.795427
6.748026
7.727761
8.711250
9.697508
10.685873
11.675883
12.667204
13.659589
14.652852
15.646845
16.618686
17.381250
17.371397
17.233387
17.124877
17.047674
17.000812
16.975280
16.932515
16.834982
16.716262
16.601446
16.491821
16.372859
16.243199
16.118630
16.011977
15.928815
15.870696
15.537722
14.662657
13.690249
12.697404
11.705524
10.714822
9.725584
8.738200
7.753216
6.771425
4.901885
3.960073
2.999329
2.052384
1.119986
0.199544
-0.610299
-1.175619
-1.580414
-1.702300
-1.650289
-1.464302
-1.113970
-0.650427
-0.005470
0.828037
1.745624
1.961947
0.995952
0.000000
-7.036879
-6.427227
-6.307272
-5.887281
-5.517915
-5.258604
-4.989483
-4.422068
-3.668214
-2.844729
-1.954268
-0.987820
-0.371166
-0.818950
-0.880206
-0.886178
-0.301901
0.630431
1.610001
2.603279
3.600951
4.600457
6.540837
7.540802
8.540790
9.540786
10.540785
11.540784
12.540784
13.540784
14.540784
15.540784
16.540784
17.528023
18.243775
18.225871
18.120734
18.046077
18.000684
17.975119
17.928498
17.827704
17.709475
17.595876
17.485153
17.364020
17.234422
17.112276
17.008109
16.912726
16.460614
15.527870
14.574914
13.574914
12.574914
11.574914
10.574915
9.574916
8.574918
7.574926
6.574948
4.711177
3.711488
2.712908
1.717021
0.729567
-0.225190
-0.992646
-1.533724
-1.797749
-1.837762
-1.837668
-1.780742
-1.555640
-1.124925
-0.529576
0.318538
1.356048
1.983860
0.994854
0.000000
-6.330221
-6.416918
-5.997615
-5.543677
-5.231014
-4.959308
-4.553462
-3.963786
-3.218064
-2.466586
-1.655366
-0.745147
-0.001640
-0.621634
-0.838325
-0.663957
0.163898
1.053814
1.968827
2.906516
3.862185
4.795427
6.748026
7.727761
8.711250
9.697508
10.685873
11.675883
12.667204
13.659589
14.652852
15.646845
16.641456
17.395160
17.371397
17.233387
17.124877
17.047673
17.000813
16.975281
16.932515
16.834983
16.716262
16.601447
16.491822
16.372859
16.243197
16.118620
16.012000
15.929189
15.871431
15.554339
14.683893
13.690249
12.697404
11.705524
10.714822
9.725584
8.738200
7.753216
6.771425
4.901885
3.960073
2.999330
2.052386
1.119988
0.199547
-0.610299
-1.175622
-1.580413
-1.702300
-1.650287
-1.464294
-1.113972
-0.650396
-0.004473
0.827146
1.743812
1.961947
0.995952
0.000000
-6.559100
-5.915317
-5.227717
-4.678970
-4.308708
-4.054398
-3.734071
-3.237618
-2.590398
-1.847094
-1.041543
-0.285911
-0.251407
-0.338419
-0.345188
0.152704
0.846935
1.618371
2.448485
3.321417
4.225351
6.081882
7.024606
7.978371
8.940322
9.908469
10.881405
11.858113
12.837847
13.820046
14.804280
15.790216
16.570273
16.551486
16.383486
16.241391
16.129317
16.049401
16.000972
15.975380
15.936069
15.842232
15.723347
15.606992
15.498113
15.381519
15.252249
15.125831
15.016685
14.931708
14.872277
14.829301
14.607758
13.848208
12.862509
11.881371
10.902899
9.927699
8.956567
7.990572
7.031172
6.080425
4.292427
3.372443
2.480894
1.632840
0.856445
0.212420
-0.270333
-0.647986
-0.769841
-0.714869
-0.503889
-0.163022
0.218357
0.751726
1.454113
2.367967
1.580315
0.788703
0.000000
-6.094453
-5.302600
-4.514851
-3.838794
-3.358171
-3.082260
-2.807555
-2.411845
-1.854691
-1.151393
-0.407991
0.238560
0.025980
0.066635
0.464671
0.996276
1.596523
2.270681
3.019601
3.825677
4.674230
6.478082
7.383344
8.305620
9.240882
10.186213
11.139475
12.099074
13.063810
14.032760
15.005211
15.759354
15.752347
15.568362
15.396280
15.249925
15.134084
15.051274
15.001164
14.975441
14.939158
14.849365
14.730767
14.612582
14.504036
14.389943
14.261487
14.133367
14.021631
13.934089
13.873181
13.830224
13.766928
13.631987
13.078564
12.113027
11.149969
10.192246
9.241066
8.298051
7.365478
6.446764
4.703816
3.835419
3.013619
2.262483
1.617305
1.094798
0.672586
0.346593
0.230275
0.285276
0.484489
0.798846
1.141433
1.587339
2.287723
1.766664
0.977669
0.169892
-0.773819
-5.640066
-4.790823
-3.932181
-3.120326
-2.473712
-2.099954
-1.880074
-1.512409
-1.005163
-0.279816
0.427664
1.083660
0.994076
1.013157
1.377794
1.848905
2.387051
2.994966
3.674136
4.415153
6.124212
6.957934
7.821476
8.708004
9.612446
10.531033
11.460937
12.400010
13.346598
14.328778
14.933878
14.919155
14.770321
14.585972
14.409824
14.259037
14.139214
14.053305
14.001390
13.975481
13.941803
13.856277
13.738553
13.618291
13.509613
13.398061
13.270878
13.141225
13.026891
12.936648
12.873747
12.830738
12.770304
12.674152
12.575561
12.268221
11.456368
10.519245
9.591555
8.675753
7.775443
6.896143
6.046517
4.397600
3.654674
2.996925
2.446625
1.996961
1.621902
1.342245
1.230495
1.284711
1.463187
1.744116
2.081254
2.484260
1.932102
1.133377
0.334973
-0.404685
-1.306764
-5.104718
-4.295165
-3.456578
-2.587632
-1.752315
-1.158898
-0.996927
-0.622210
-0.132549
0.595589
1.255315
1.864133
2.004018
2.015329
2.318973
2.727885
3.214934
3.771778
4.394660
5.077447
6.728923
7.512661
8.332071
9.179947
10.050536
10.939367
11.842994
12.758745
13.644406
13.991672
13.994632
13.926945
13.787837
13.604299
13.424167
13.268776
13.144747
13.055515
13.001649
12.975507
12.944044
12.862846
12.746722
12.624200
12.514879
12.405802
12.280384
12.149403
12.032472
11.939435
11.874371
11.831525
11.774904
11.676107
11.577801
11.495142
11.412997
10.928289
10.006127
9.122280
8.260193
7.427439
6.634893
5.049397
4.383605
3.803716
3.318048
2.914617
2.579150
2.337894
2.230688
2.284011
2.443410
2.693000
2.766715
2.037695
1.265926
0.465904
-0.404681
-1.106650
-1.875863
-4.339617
-3.688726
-2.994555
-2.164689
-1.263420
-0.418143
-0.090439
0.278695
0.746871
1.344341
2.004384
2.650693
2.996940
3.013110
3.279505
3.635813
4.073784
4.586599
6.070047
6.706747
7.396106
8.131772
8.906856
9.714728
10.549562
11.406512
12.281671
12.930812
12.989422
12.993765
12.995111
12.933058
12.804549
12.623302
12.439354
12.279195
12.150730
12.057925
12.001941
11.975527
11.945941
11.868945
11.755276
11.630391
11.519889
11.413099
11.289958
11.157902
11.038388
10.942482
10.875066
10.832072
10.779671
10.681938
10.581485
10.500551
10.437224
10.370607
10.212597
9.635302
8.816273
8.034408
7.301061
6.629713
6.033954
4.658439
4.217645
3.847319
3.546450
3.333573
3.230629
3.282649
3.468877
3.086575
2.247161
1.412985
0.568638
-0.333114
-1.182848
-1.878221
-2.566035
-3.380483
-2.935520
-2.396782
-1.665702
-0.882832
-0.004020
0.777347
1.209530
1.630891
2.141686
2.750533
3.402697
3.940562
3.997685
4.245209
4.561644
4.957907
6.336474
6.873701
7.467693
8.112910
8.804439
9.537034
10.305191
11.103592
11.911014
12.086596
12.034903
12.008395
11.993938
11.995523
11.937686
11.820072
11.642902
11.455434
11.290352
11.157213
11.060563
11.002266
10.975543
10.947567
10.874449
10.764197
10.636951
10.524711
10.419892
10.299541
10.166719
10.044650
9.945812
9.875856
9.832453
9.784141
9.688135
9.585648
9.502534
9.437862
9.372588
9.287423
9.196035
9.091700
8.707053
8.030391
7.417857
6.877966
6.414220
6.024256
4.791775
4.520450
4.330902
4.236855
4.229616
3.521659
2.594235
1.714731
0.866031
-0.022608
-0.972732
-1.808154
-2.566927
-3.302338
-2.358088
-2.052113
-1.595199
-1.036837
-0.366935
0.488645
1.388933
2.114441
2.551926
3.004061
3.544210
4.157941
4.776952
4.974830
6.127824
6.407290
6.769393
7.205452
7.705846
8.262288
8.868764
9.520723
10.213951
10.944062
11.317929
11.190855
11.094169
11.035442
11.008500
10.993938
10.995928
10.941110
10.834012
10.662972
10.472451
10.302304
10.164256
10.063463
10.002623
9.975556
9.949002
9.879250
9.773437
9.643966
9.529427
9.426137
9.309065
9.175850
9.051264
8.949452
8.876760
8.832708
8.788239
8.694543
8.590071
8.504677
8.439338
8.375863
8.291420
8.197863
8.112007
8.036228
7.966636
7.897825
7.756705
7.323429
6.962694
6.672077
6.456555
6.271042
4.860285
4.088272
3.146963
2.190193
1.247099
0.323051
-0.617889
-1.551914
-2.394016
-3.197267
-3.986033
-1.364785
-1.121705
-0.771068
-0.261014
0.341024
1.079837
1.902896
2.752858
3.444910
3.909555
4.393179
4.938649
6.513564
6.902479
7.113821
7.362864
7.691083
8.093792
8.560865
9.083648
9.655700
10.272332
10.664420
10.499643
10.335006
10.197882
10.097096
10.036002
10.008607
9.993938
9.996361
9.943653
9.846019
9.683321
9.490448
9.315110
9.171923
9.066665
9.003015
8.975567
8.950328
8.883271
8.782919
8.651523
8.534136
8.431805
8.318447
8.185292
8.058232
7.953433
7.877793
7.832877
7.791909
7.701145
7.594795
7.506956
7.440703
7.378945
7.296186
7.202063
7.115147
7.038714
6.967869
6.898569
6.835362
6.778251
6.726051
6.670713
6.386020
4.737860
4.166456
3.549064
2.806348
1.873906
0.897734
-0.084362
-1.069740
-1.994561
-2.891818
-3.752599
-4.602671
-0.519086
-0.129829
0.142999
0.597929
1.121108
1.749350
2.487658
3.299321
4.119648
4.769207
6.225894
6.749180
7.317367
7.816687
8.099006
8.333176
8.628561
8.998703
9.434698
9.890683
9.930470
9.853288
9.696910
9.515958
9.347546
9.205541
9.100301
9.036584
9.008715
8.993938
8.996840
8.945630
8.855850
8.703669
8.509467
8.328827
8.180287
8.070221
8.003442
7.975575
7.951628
7.886485
7.792523
7.659703
7.538945
7.436892
7.327587
7.195041
7.065550
6.957789
6.878971
6.832990
6.795107
6.707908
6.599840
6.509398
6.441988
6.381799
6.300974
6.206383
6.118334
6.041269
5.186058
5.075403
4.976838
4.889472
4.810612
4.737572
4.606100
4.050468
3.371777
2.741145
2.193468
1.591091
0.668853
-0.326010
-1.318313
-2.284696
-3.239444
-4.169281
-5.086966
-0.109384
0.882909
1.260114
1.604871
2.001905
2.519422
3.158646
3.896693
4.699196
6.313645
7.023440
7.601654
8.149512
8.686258
8.988487
8.993021
8.999978
8.999224
8.997106
8.967570
8.931053
8.862857
8.714488
8.532820
8.360902
8.213913
8.103832
8.037188
8.008825
7.993938
7.997361
7.947319
7.863436
7.723631
7.529540
7.343512
7.189424
7.074196
7.003910
6.975580
6.952986
6.888915
6.802087
6.668576
6.543978
6.441421
6.336369
6.205101
6.073201
5.499608
5.352841
5.232947
5.130904
5.016858
4.911621
4.846168
4.794981
4.708335
4.588217
4.476162
4.388207
4.300224
4.192075
4.080134
3.980566
3.892471
3.812954
3.742135
3.662603
3.349211
2.640975
1.946100
1.352943
0.835862
0.359697
-0.446155
-1.433470
-2.426206
-3.416101
-4.398066
-5.369790
-0.256594
0.743327
1.678476
2.448636
2.956371
3.405028
3.946395
4.581138
6.042760
6.871756
7.699420
7.999541
7.991112
7.999974
7.999994
8.000000
8.000000
7.999293
7.997446
7.967824
7.931387
7.870693
7.731858
7.550144
7.375081
7.223086
7.107749
7.037818
7.008937
6.993938
6.997905
6.948952
6.868914
6.742707
6.550693
6.359216
6.199410
6.078671
6.004423
5.742594
5.569712
5.411215
5.263396
5.116918
5.019394
4.981824
4.927808
4.794472
4.648944
4.511787
4.358770
4.236451
4.135671
4.023008
3.914251
3.847344
3.798030
3.714048
3.594161
3.479768
3.392094
3.305780
3.198019
3.084923
2.984304
2.895565
2.815378
2.743999
2.675713
2.550455
1.973151
1.239489
0.524806
-0.087059
-0.472807
-0.783826
-1.613896
-2.562051
-3.543187
-4.528505
-5.512337
-0.115347
0.884654
1.871984
2.822739
3.666899
4.318116
4.839399
6.000512
6.739642
6.999846
6.993463
6.999986
6.999996
7.000000
7.000000
7.000000
7.000000
6.999368
6.997789
6.968156
6.931602
6.876773
6.748860
6.567828
6.390056
6.233161
6.112128
6.038474
6.009051
5.935734
5.780411
5.600653
5.438809
5.292540
5.155009
5.084154
5.079956
5.021403
4.908573
4.750651
4.579619
4.418790
4.273811
4.122306
4.016913
3.980753
3.932948
3.800034
3.659301
3.524036
3.365033
3.239955
3.140185
3.029088
2.916885
2.848362
2.800976
2.719644
2.600344
2.483333
2.395812
2.311276
2.203950
2.089703
1.988002
1.898634
1.817655
1.745788
1.679619
1.605271
1.331618
0.586354
-0.204474
-0.860484
-1.322146
-1.646906
-2.115552
-2.891768
-3.797427
-4.740485
-5.687646
0.000000
1.000055
1.995226
2.986885
3.953817
4.854532
5.725056
5.985106
5.996123
5.999992
5.999999
6.000000
6.000000
6.000000
6.000000
6.000000
5.999992
5.997840
5.930168
5.810817
5.676480
5.529520
5.372102
5.227102
5.145320
5.134947
5.068405
5.008226
5.009528
4.941019
4.791555
4.611192
4.444390
4.298343
4.157302
4.079936
4.077412
4.026724
3.917045
3.758607
3.590040
3.426140
3.284389
3.128580
3.014221
2.979081
2.937970
2.804601
2.668859
2.537140
2.371627
2.243523
2.144445
2.035258
1.919277
1.849080
1.803723
1.725120
1.606805
1.486864
1.399354
1.316742
1.209530
1.094182
0.991415
0.901433
0.819833
0.747619
0.680944
0.616158
0.521364
-0.021355
-0.803721
-1.544299
-2.124057
-2.572027
-2.949108
-3.495483
-4.253847
-5.108324
-5.973868
0.000000
1.000595
2.001103
3.001381
3.995672
4.794937
4.993827
4.997006
4.999997
4.999999
5.000000
5.000000
5.000000
5.000000
5.000000
5.000000
4.999996
4.998449
4.935195
4.817317
4.684020
4.537143
4.381760
4.229842
4.141082
4.130675
4.064576
4.003654
4.007545
3.946027
3.802620
3.622686
3.450481
3.303071
3.159824
3.074914
3.074807
3.031637
2.925590
2.766344
2.601097
2.433320
2.294713
2.135486
2.011055
1.976859
1.943063
1.807891
1.677309
1.550589
1.378382
1.246888
1.148426
1.040742
0.920567
0.848988
0.806187
0.730389
0.613198
0.489733
0.402076
0.322029
0.213339
0.097419
-0.006167
-0.096681
-0.178668
-0.251350
-0.318426
-0.381964
-0.439435
-0.613487
-1.362381
-2.173448
-2.869962
-3.432614
-3.858502
-4.298376
-4.897288
-5.639431
-6.341735
0.000000
1.000000
1.998999
2.996928
3.800905
3.989729
3.997724
3.999998
4.000000
4.000000
4.000000
4.000000
4.000000
4.000000
4.000000
4.000000
3.999998
3.998937
3.940115
3.823723
3.691583
3.544578
3.391569
3.232899
3.136238
3.125655
3.060186
2.998955
3.004676
2.950662
2.813497
2.635119
2.457424
2.306931
2.161724
2.069035
2.070920
2.036126
1.934235
1.773875
1.612534
1.440302
1.304248
1.142188
1.006544
0.973993
0.948471
0.809460
0.684057
0.561067
0.384474
0.249928
0.151331
0.042869
-0.081086
-0.152881
-0.192135
-0.268409
-0.385527
-0.510492
-0.597438
-0.675878
-0.785313
-0.900658
-1.004579
-1.095483
-1.177580
-1.250453
-1.317257
-1.380754
-1.436851
-1.514122
-1.959267
-2.716442
-3.507116
-4.195809
-4.738512
-5.189830
-5.674761
-6.031037
-6.035772
0.000000
0.987283
1.976733
2.777954
2.996795
2.995821
2.999994
2.999999
3.000000
3.000000
3.000000
3.000000
3.000000
3.000000
3.000000
3.000000
2.999999
2.999317
2.944923
2.830028
2.699184
2.551837
2.401507
2.235947
2.130743
2.119682
2.055071
1.994280
2.000776
1.954913
1.824055
1.648157
1.465347
1.310299
1.160404
1.061753
1.065301
1.040042
0.943097
0.780969
0.622434
0.446715
0.310140
0.144561
-0.001859
-0.031097
-0.046772
-0.196100
-0.315577
-0.438495
-0.613104
-0.748983
-0.848331
-0.955419
-1.076351
-1.149635
-1.191454
-1.267719
-1.381470
-1.505130
-1.594806
-1.674354
-1.780386
-1.894586
-1.999582
-2.091689
-2.174431
-2.247945
-2.315024
-2.378697
-2.435015
-2.485463
-2.777913
-3.349731
-4.107221
-4.867900
-5.535392
-6.074819
-6.315853
-6.083116
-6.713703
0.000000
0.996724
1.800370
1.976733
1.998886
1.999944
2.000000
2.000000
2.000000
2.000000
2.000000
2.000000
2.000000
2.000000
2.000000
2.000000
2.000000
1.999606
1.949616
1.836190
1.706836
1.558977
1.410812
1.237726
1.124456
1.112404
1.048877
0.989826
0.995660
0.958804
0.833924
0.659637
0.473230
0.312270
0.148686
0.047386
0.054635
0.042249
-0.047852
-0.218323
-0.377264
-0.550673
-0.688776
-0.851206
-0.995704
-1.029515
-1.045855
-1.189658
-1.311471
-1.434791
-1.601268
-1.741872
-1.844635
-1.949020
-2.066970
-2.147231